 Entering Gaussian System, Link 0=/usr/baldrick/g03/g03
 Initial command:
 /usr/baldrick/g03/l1.exe /tmp/ammonia.fq/Gau-30325.inp -scrdir=/tmp/ammonia.fq/
 Entering Link 1 = /usr/baldrick/g03/l1.exe PID=     30327.
  
 Copyright (c) 1988,1990,1992,1993,1995,1998,2003, Gaussian, Inc.
                  All Rights Reserved.
  
 This is the Gaussian(R) 03 program.  It is based on the
 the Gaussian(R) 98 system (copyright 1998, Gaussian, Inc.),
 the Gaussian(R) 94 system (copyright 1995, Gaussian, Inc.),
 the Gaussian 92(TM) system (copyright 1992, Gaussian, Inc.),
 the Gaussian 90(TM) system (copyright 1990, Gaussian, Inc.),
 the Gaussian 88(TM) system (copyright 1988, Gaussian, Inc.),
 the Gaussian 86(TM) system (copyright 1986, Carnegie Mellon
 University), and the Gaussian 82(TM) system (copyright 1983,
 Carnegie Mellon University). Gaussian is a federally registered
 trademark of Gaussian, Inc.
  
 This software contains proprietary and confidential information,
 including trade secrets, belonging to Gaussian, Inc.
  
 This software is provided under written license and may be
 used, copied, transmitted, or stored only in accord with that
 written license.
  
 The following legend is applicable only to US Government
 contracts under DFARS:
  
                    RESTRICTED RIGHTS LEGEND
  
 Use, duplication or disclosure by the US Government is subject
 to restrictions as set forth in subparagraph (c)(1)(ii) of the
 Rights in Technical Data and Computer Software clause at DFARS
 252.227-7013.
  
 Gaussian, Inc.
 Carnegie Office Park, Building 6, Pittsburgh, PA 15106 USA
  
 The following legend is applicable only to US Government
 contracts under FAR:
  
                    RESTRICTED RIGHTS LEGEND
  
 Use, reproduction and disclosure by the US Government is subject
 to restrictions as set forth in subparagraph (c) of the
 Commercial Computer Software - Restricted Rights clause at FAR
 52.227-19.
  
 Gaussian, Inc.
 Carnegie Office Park, Building 6, Pittsburgh, PA 15106 USA
  
  
 ---------------------------------------------------------------
 Warning -- This program may not be used in any manner that
 competes with the business of Gaussian, Inc. or will provide
 assistance to any competitor of Gaussian, Inc.  The licensee
 of this program is prohibited from giving any competitor of
 Gaussian, Inc. access to this program.  By using this program,
 the user acknowledges that Gaussian, Inc. is engaged in the
 business of creating and licensing software in the field of
 computational chemistry and represents and warrants to the
 licensee that it is not a competitor of Gaussian, Inc. and that
 it will not use this program in any manner prohibited above.
 ---------------------------------------------------------------
  

 Cite this work as:
 Gaussian 03, Revision B.04,
 M. J. Frisch, G. W. Trucks, H. B. Schlegel, G. E. Scuseria, 
 M. A. Robb, J. R. Cheeseman, J. A. Montgomery, Jr., T. Vreven, 
 K. N. Kudin, J. C. Burant, J. M. Millam, S. S. Iyengar, J. Tomasi, 
 V. Barone, B. Mennucci, M. Cossi, G. Scalmani, N. Rega, 
 G. A. Petersson, H. Nakatsuji, M. Hada, M. Ehara, K. Toyota, 
 R. Fukuda, J. Hasegawa, M. Ishida, T. Nakajima, Y. Honda, O. Kitao, 
 H. Nakai, M. Klene, X. Li, J. E. Knox, H. P. Hratchian, J. B. Cross, 
 C. Adamo, J. Jaramillo, R. Gomperts, R. E. Stratmann, O. Yazyev, 
 A. J. Austin, R. Cammi, C. Pomelli, J. W. Ochterski, P. Y. Ayala, 
 K. Morokuma, G. A. Voth, P. Salvador, J. J. Dannenberg, 
 V. G. Zakrzewski, S. Dapprich, A. D. Daniels, M. C. Strain, 
 O. Farkas, D. K. Malick, A. D. Rabuck, K. Raghavachari, 
 J. B. Foresman, J. V. Ortiz, Q. Cui, A. G. Baboul, S. Clifford, 
 J. Cioslowski, B. B. Stefanov, G. Liu, A. Liashenko, P. Piskorz, 
 I. Komaromi, R. L. Martin, D. J. Fox, T. Keith, M. A. Al-Laham, 
 C. Y. Peng, A. Nanayakkara, M. Challacombe, P. M. W. Gill, 
 B. Johnson, W. Chen, M. W. Wong, C. Gonzalez, and J. A. Pople, 
 Gaussian, Inc., Pittsburgh PA, 2003.
 
 *********************************************
 Gaussian 03:  x86-Linux-G03RevB.04 2-Jun-2003
                  30-Jan-2008 
 *********************************************
 %chk=../CHK/ammonia.chk
 ----------------------------------------------------------
 # b3lyp/6-31g* pop=full gfprint freq guess=read geom=check
 ----------------------------------------------------------
 1/10=4,29=2,30=1,38=1/1,3;
 2/40=1/2;
 3/5=1,6=6,7=1,11=2,16=1,24=100,25=1,30=1,74=-5/1,2,3;
 4/5=1/1;
 5/5=2,38=6/2;
 8/6=4,10=90,11=11/1;
 11/6=1,8=1,9=11,15=111,16=1/1,2,10;
 10/6=1/2;
 6/7=3,18=1,28=1/1;
 7/8=1,10=1,25=1/1,2,3,16;
 1/10=4,30=1/3;
 99//99;
 ----------------
 InChI=1/H3N/h1H3
 ----------------
 Redundant internal coordinates taken from checkpoint file:
 ../CHK/ammonia.chk
 Charge =  0 Multiplicity = 1
 H,0,-0.5378660702,-0.0915950302,-0.8129866541
 H,0,-0.538334105,-0.089467913,0.8129137364
 N,0,0.0770095359,-0.0910782707,0.0001413231
 H,0,0.5371334241,0.8186108379,-0.000916344
 Recover connectivity data from disk.

 GradGradGradGradGradGradGradGradGradGradGradGradGradGradGradGradGradGrad
 Berny optimization.
 Initialization pass.
                           ----------------------------
                           !    Initial Parameters    !
                           ! (Angstroms and Degrees)  !
 --------------------------                            --------------------------
 ! Name  Definition              Value          Derivative Info.                !
 --------------------------------------------------------------------------------
 ! R1    R(1,3)                  1.0194         calculate D2E/DX2 analytically  !
 ! R2    R(2,3)                  1.0194         calculate D2E/DX2 analytically  !
 ! R3    R(3,4)                  1.0194         calculate D2E/DX2 analytically  !
 ! A1    A(1,3,2)              105.7749         calculate D2E/DX2 analytically  !
 ! A2    A(1,3,4)              105.7749         calculate D2E/DX2 analytically  !
 ! A3    A(2,3,4)              105.7749         calculate D2E/DX2 analytically  !
 ! A4    L(1,3,2,4,-2)         111.923          calculate D2E/DX2 analytically  !
 --------------------------------------------------------------------------------
 Trust Radius=3.00D-01 FncErr=1.00D-07 GrdErr=1.00D-07
 Number of steps in this run=   2 maximum allowed number of steps=   2.
 GradGradGradGradGradGradGradGradGradGradGradGradGradGradGradGradGradGrad

                          Input orientation:                          
 ---------------------------------------------------------------------
 Center     Atomic     Atomic              Coordinates (Angstroms)
 Number     Number      Type              X           Y           Z
 ---------------------------------------------------------------------
    1          1             0       -0.537866   -0.091595   -0.812987
    2          1             0       -0.538334   -0.089468    0.812914
    3          7             0        0.077010   -0.091078    0.000141
    4          1             0        0.537133    0.818611   -0.000916
 ---------------------------------------------------------------------
                    Distance matrix (angstroms):
                    1          2          3          4
     1  H    0.000000
     2  H    1.625902   0.000000
     3  N    1.019436   1.019436   0.000000
     4  H    1.625902   1.625902   1.019436   0.000000
 Stoichiometry    H3N
 Framework group  C3V[C3(N),3SGV(H)]
 Deg. of freedom     2
 Full point group                 C3V     NOp   6
 Largest Abelian subgroup         CS      NOp   2
 Largest concise Abelian subgroup CS      NOp   2
                         Standard orientation:                         
 ---------------------------------------------------------------------
 Center     Atomic     Atomic              Coordinates (Angstroms)
 Number     Number      Type              X           Y           Z
 ---------------------------------------------------------------------
    1          1             0        0.000000    0.938715   -0.278301
    2          1             0        0.812951   -0.469357   -0.278301
    3          7             0        0.000000    0.000000    0.119272
    4          1             0       -0.812951   -0.469357   -0.278301
 ---------------------------------------------------------------------
 Rotational constants (GHZ):    292.9461228    292.9461228    189.6895487
 Standard basis: 6-31G(d) (6D, 7F)
 AO basis set:
 Atom H1       Shell     1 S   3     bf    1 -     1          0.000000000000          1.773914022807         -0.525912008622
      0.1873113696D+02  0.3349460434D-01
      0.2825394365D+01  0.2347269535D+00
      0.6401216923D+00  0.8137573261D+00
 Atom H1       Shell     2 S   1     bf    2 -     2          0.000000000000          1.773914022807         -0.525912008622
      0.1612777588D+00  0.1000000000D+01
 Atom H2       Shell     3 S   3     bf    3 -     3          1.536254607881         -0.886957011404         -0.525912008622
      0.1873113696D+02  0.3349460434D-01
      0.2825394365D+01  0.2347269535D+00
      0.6401216923D+00  0.8137573261D+00
 Atom H2       Shell     4 S   1     bf    4 -     4          1.536254607881         -0.886957011404         -0.525912008622
      0.1612777588D+00  0.1000000000D+01
 Atom N3       Shell     5 S   6     bf    5 -     5          0.000000000000          0.000000000000          0.225390860838
      0.4173511460D+04  0.1834772160D-02
      0.6274579110D+03  0.1399462700D-01
      0.1429020930D+03  0.6858655181D-01
      0.4023432930D+02  0.2322408730D+00
      0.1282021290D+02  0.4690699481D+00
      0.4390437010D+01  0.3604551991D+00
 Atom N3       Shell     6 SP   3    bf    6 -     9          0.000000000000          0.000000000000          0.225390860838
      0.1162636186D+02 -0.1149611817D+00  0.6757974388D-01
      0.2716279807D+01 -0.1691174786D+00  0.3239072959D+00
      0.7722183966D+00  0.1145851947D+01  0.7408951398D+00
 Atom N3       Shell     7 SP   1    bf   10 -    13          0.000000000000          0.000000000000          0.225390860838
      0.2120314975D+00  0.1000000000D+01  0.1000000000D+01
 Atom N3       Shell     8 D   1     bf   14 -    19          0.000000000000          0.000000000000          0.225390860838
      0.8000000000D+00  0.1000000000D+01
 Atom H4       Shell     9 S   3     bf   20 -    20         -1.536254607881         -0.886957011404         -0.525912008622
      0.1873113696D+02  0.3349460434D-01
      0.2825394365D+01  0.2347269535D+00
      0.6401216923D+00  0.8137573261D+00
 Atom H4       Shell    10 S   1     bf   21 -    21         -1.536254607881         -0.886957011404         -0.525912008622
      0.1612777588D+00  0.1000000000D+01
 There are    15 symmetry adapted basis functions of A'  symmetry.
 There are     6 symmetry adapted basis functions of A"  symmetry.
 Integral buffers will be    262144 words long.
 Raffenetti 2 integral format.
 Two-electron integral symmetry is turned on.
    21 basis functions,    40 primitive gaussians,    21 cartesian basis functions
     5 alpha electrons        5 beta electrons
       nuclear repulsion energy        11.8772550135 Hartrees.
 NAtoms=    4 NActive=    4 NUniq=    2 SFac= 5.66D+00 NAtFMM=   60 Big=F
 One-electron integrals computed using PRISM.
 NBasis=    21 RedAO= T  NBF=    15     6
 NBsUse=    21 1.00D-06 NBFU=    15     6
 Initial guess read from the checkpoint file:
 ../CHK/ammonia.chk
 Initial guess orbital symmetries:
       Occupied  (A1) (A1) (E) (E) (A1)
       Virtual   (A1) (E) (E) (E) (E) (A1) (E) (E) (A1) (A1) (E)
                 (E) (A1) (E) (E) (A1)
 Requested convergence on RMS density matrix=1.00D-08 within 128 cycles.
 Requested convergence on MAX density matrix=1.00D-06.
 Requested convergence on             energy=1.00D-06.
 No special actions if energy rises.
 Keep R1 integrals in memory in canonical form, NReq=      512598.
 A guess orbital has undefined symmetry, so N**3 symmetry is turned off.
 SCF Done:  E(RB+HF-LYP) =  -56.5479476356     A.U. after    1 cycles
             Convg  =    0.3567D-09             -V/T =  2.0092
             S**2   =   0.0000
 Range of M.O.s used for correlation:     1    21
 NBasis=    21 NAE=     5 NBE=     5 NFC=     0 NFV=     0
 NROrb=     21 NOA=     5 NOB=     5 NVA=    16 NVB=    16
 Symmetrizing basis deriv contribution to polar:
 IMax=3 JMax=2 DiffMx= 0.00D+00
 G2DrvN: will do    5 centers at a time, making    1 passes doing MaxLOS=2.
 FoFDir/FoFCou used for L=0 through L=2.
          Differentiating once with respect to electric field.
                with respect to dipole field.
          Differentiating once with respect to nuclear coordinates.
          Store integrals in memory, NReq=      457259.
          There are   9 degrees of freedom in the 1st order CPHF.
     9 vectors were produced by pass  0.
 AX will form   9 AO Fock derivatives at one time.
     9 vectors were produced by pass  1.
     9 vectors were produced by pass  2.
     9 vectors were produced by pass  3.
     9 vectors were produced by pass  4.
     3 vectors were produced by pass  5.
 Inv2:  IOpt= 1 Iter= 1 AM= 6.98D-16 Conv= 1.00D-12.
 Inverted reduced A of dimension   48 with in-core refinement.
 Isotropic polarizability for W=    0.000000        8.31 Bohr**3.
 End of Minotr Frequency-dependent properties file   721 does not exist.

 **********************************************************************

            Population analysis using the SCF density.

 **********************************************************************

 Orbital symmetries:
       Occupied  (A1) (A1) (E) (E) (A1)
       Virtual   (A1) (E) (E) (E) (E) (A1) (E) (E) (A1) (A1) (E)
                 (E) (A1) (E) (E) (A1)
 The electronic state is 1-A1.
 Alpha  occ. eigenvalues --  -14.30602  -0.84529  -0.45226  -0.45226  -0.25235
 Alpha virt. eigenvalues --    0.07860   0.16779   0.16779   0.68325   0.68325
 Alpha virt. eigenvalues --    0.72190   0.91513   0.91513   0.92215   1.15589
 Alpha virt. eigenvalues --    1.67547   1.67547   1.94082   2.40297   2.40297
 Alpha virt. eigenvalues --    3.66836
     Molecular Orbital Coefficients
                           1         2         3         4         5
                        (A1)--O   (A1)--O   (E)--O    (E)--O    (A1)--O
     EIGENVALUES --   -14.30602  -0.84529  -0.45226  -0.45226  -0.25235
   1 1   H  1S          0.00024   0.14004   0.27164   0.06668  -0.06578
   2        2S         -0.00034   0.01216   0.18976   0.04658  -0.06686
   3 2   H  1S          0.00024   0.14004  -0.19356   0.20190  -0.06578
   4        2S         -0.00034   0.01216  -0.13522   0.14104  -0.06686
   5 3   N  1S          0.99271  -0.19874   0.00000   0.00000  -0.07631
   6        2S          0.03464   0.41519   0.00000   0.00000   0.16523
   7        2PX         0.00000   0.00000  -0.11490   0.46805   0.00000
   8        2PY         0.00000   0.00000   0.46805   0.11490   0.00000
   9        2PZ        -0.00134  -0.11677   0.00000   0.00000   0.55280
  10        3S          0.00376   0.42636   0.00000   0.00000   0.34222
  11        3PX         0.00000   0.00000  -0.05899   0.24031   0.00000
  12        3PY         0.00000   0.00000   0.24031   0.05899   0.00000
  13        3PZ         0.00038  -0.05879   0.00000   0.00000   0.46505
  14        4XX        -0.00817   0.00686  -0.01325  -0.00325   0.00827
  15        4YY        -0.00817   0.00686   0.01325   0.00325   0.00827
  16        4ZZ        -0.00821  -0.00543   0.00000   0.00000  -0.04213
  17        4XY         0.00000   0.00000   0.00376  -0.01531   0.00000
  18        4XZ         0.00000   0.00000   0.00846  -0.03445   0.00000
  19        4YZ         0.00000   0.00000  -0.03445  -0.00846   0.00000
  20 4   H  1S          0.00024   0.14004  -0.07807  -0.26858  -0.06578
  21        2S         -0.00034   0.01216  -0.05454  -0.18762  -0.06686
                           6         7         8         9        10
                        (A1)--V   (E)--V    (E)--V    (E)--V    (E)--V
     EIGENVALUES --     0.07860   0.16779   0.16779   0.68325   0.68325
   1 1   H  1S         -0.05665  -0.04416   0.09585  -0.64793  -0.42707
   2        2S         -0.91988  -0.68301   1.48258   0.09856   0.06496
   3 2   H  1S         -0.05665  -0.06093  -0.08617   0.69382  -0.34759
   4        2S         -0.91988  -0.94245  -1.33279  -0.10554   0.05287
   5 3   N  1S         -0.12728   0.00000   0.00000   0.00000   0.00000
   6        2S          0.16837   0.00000   0.00000   0.00000   0.00000
   7        2PX         0.00000   0.38016   0.17514   0.19558  -0.29673
   8        2PY         0.00000   0.17514  -0.38016  -0.29673  -0.19558
   9        2PZ        -0.19975   0.00000   0.00000   0.00000   0.00000
  10        3S          1.81214   0.00000   0.00000   0.00000   0.00000
  11        3PX         0.00000   0.91618   0.42207  -0.63187   0.95864
  12        3PY         0.00000   0.42207  -0.91618   0.95864   0.63187
  13        3PZ        -0.47725   0.00000   0.00000   0.00000   0.00000
  14        4XX        -0.03393   0.00260  -0.00563   0.10287   0.06781
  15        4YY        -0.03393  -0.00260   0.00563  -0.10287  -0.06781
  16        4ZZ        -0.02901   0.00000   0.00000   0.00000   0.00000
  17        4XY         0.00000   0.00650   0.00300  -0.07830   0.11879
  18        4XZ         0.00000  -0.01450  -0.00668  -0.04883   0.07408
  19        4YZ         0.00000  -0.00668   0.01450   0.07408   0.04883
  20 4   H  1S         -0.05665   0.10509  -0.00968  -0.04589   0.77466
  21        2S         -0.91988   1.62545  -0.14979   0.00698  -0.11784
                          11        12        13        14        15
                        (A1)--V   (E)--V    (E)--V    (A1)--V   (A1)--V
     EIGENVALUES --     0.72190   0.91513   0.91513   0.92215   1.15589
   1 1   H  1S          0.03983   0.22502  -0.50193   0.69797  -0.36840
   2        2S          0.13939  -0.60281   1.34467  -0.59218  -0.78205
   3 2   H  1S          0.03983   0.32218   0.44584   0.69797  -0.36840
   4        2S          0.13939  -0.86311  -1.19438  -0.59218  -0.78205
   5 3   N  1S          0.01885   0.00000   0.00000   0.06291  -0.08911
   6        2S         -0.17343   0.00000   0.00000  -0.73815  -1.52819
   7        2PX         0.00000  -0.90325  -0.40492   0.00000   0.00000
   8        2PY         0.00000  -0.40492   0.90325   0.00000   0.00000
   9        2PZ        -0.98219   0.00000   0.00000   0.24044   0.14516
  10        3S         -0.05098   0.00000   0.00000   1.11837   4.08091
  11        3PX         0.00000   1.29040   0.57848   0.00000   0.00000
  12        3PY         0.00000   0.57848  -1.29040   0.00000   0.00000
  13        3PZ         1.11847   0.00000   0.00000   0.00263  -0.84786
  14        4XX        -0.04588  -0.03541   0.07899  -0.01234  -0.40214
  15        4YY        -0.04588   0.03541  -0.07899  -0.01234  -0.40214
  16        4ZZ        -0.04768   0.00000   0.00000  -0.24905  -0.03899
  17        4XY         0.00000  -0.09120  -0.04089   0.00000   0.00000
  18        4XZ         0.00000  -0.06383  -0.02861   0.00000   0.00000
  19        4YZ         0.00000  -0.02861   0.06383   0.00000   0.00000
  20 4   H  1S          0.03983  -0.54720   0.05610   0.69797  -0.36840
  21        2S          0.13939   1.46592  -0.15028  -0.59218  -0.78205
                          16        17        18        19        20
                        (E)--V    (E)--V    (A1)--V   (E)--V    (E)--V
     EIGENVALUES --     1.67547   1.67547   1.94082   2.40297   2.40297
   1 1   H  1S          0.00405  -0.03495  -0.46343   0.90533  -0.11218
   2        2S          0.00049  -0.00424  -0.21079  -0.03247   0.00402
   3 2   H  1S         -0.03229   0.01397  -0.46343  -0.35552   0.84013
   4        2S         -0.00392   0.00169  -0.21079   0.01275  -0.03013
   5 3   N  1S          0.00000   0.00000  -0.05346   0.00000   0.00000
   6        2S          0.00000   0.00000  -0.47253   0.00000   0.00000
   7        2PX         0.01849   0.00214   0.00000  -0.00793  -0.06397
   8        2PY        -0.00214   0.01849   0.00000  -0.06397   0.00793
   9        2PZ         0.00000   0.00000  -0.02005   0.00000   0.00000
  10        3S          0.00000   0.00000   1.54321   0.00000   0.00000
  11        3PX         0.04226   0.00490   0.00000  -0.08053  -0.64990
  12        3PY        -0.00490   0.04226   0.00000  -0.64990   0.08053
  13        3PZ         0.00000   0.00000  -0.46652   0.00000   0.00000
  14        4XX         0.06537  -0.56387   0.44169   0.78127  -0.09680
  15        4YY        -0.06537   0.56387   0.44169  -0.78127   0.09680
  16        4ZZ         0.00000   0.00000  -1.05947   0.00000   0.00000
  17        4XY        -0.65110  -0.07549   0.00000   0.11178   0.90213
  18        4XZ         0.74933   0.08688   0.00000   0.09700   0.78284
  19        4YZ        -0.08688   0.74933   0.00000   0.78284  -0.09700
  20 4   H  1S          0.02824   0.02098  -0.46343  -0.54981  -0.72795
  21        2S          0.00342   0.00254  -0.21079   0.01972   0.02611
                          21
                        (A1)--V
     EIGENVALUES --     3.66836
   1 1   H  1S          0.13553
   2        2S         -0.56537
   3 2   H  1S          0.13553
   4        2S         -0.56537
   5 3   N  1S         -0.46676
   6        2S          1.16063
   7        2PX         0.00000
   8        2PY         0.00000
   9        2PZ         0.09999
  10        3S          3.20182
  11        3PX         0.00000
  12        3PY         0.00000
  13        3PZ        -0.33460
  14        4XX        -1.50161
  15        4YY        -1.50161
  16        4ZZ        -1.52704
  17        4XY         0.00000
  18        4XZ         0.00000
  19        4YZ         0.00000
  20 4   H  1S          0.13553
  21        2S         -0.56537
      DENSITY MATRIX.
                           1         2         3         4         5
   1 1   H  1S          0.20434
   2        2S          0.12150   0.08559
   3 2   H  1S         -0.03036  -0.04245   0.20434
   4        2S         -0.04245  -0.02894   0.12150   0.08559
   5 3   N  1S         -0.04515   0.00469  -0.04515   0.00469   2.06158
   6        2S          0.09456  -0.01202   0.09456  -0.01202  -0.12148
   7        2PX         0.00000   0.00000   0.23348   0.16310   0.00000
   8        2PY         0.26960   0.18833  -0.13480  -0.09417   0.00000
   9        2PZ        -0.10544  -0.07675  -0.10544  -0.07675  -0.04061
  10        3S          0.07439  -0.03540   0.07439  -0.03540  -0.21424
  11        3PX         0.00000   0.00000   0.11988   0.08374   0.00000
  12        3PY         0.13842   0.09670  -0.06921  -0.04835   0.00000
  13        3PZ        -0.07765  -0.06361  -0.07765  -0.06361  -0.04685
  14        4XX        -0.00681  -0.00627   0.00465   0.00173  -0.02022
  15        4YY         0.00846   0.00440  -0.00299  -0.00360  -0.02022
  16        4ZZ         0.00402   0.00551   0.00402   0.00551  -0.00770
  17        4XY         0.00000   0.00000  -0.00763  -0.00533   0.00000
  18        4XZ         0.00000   0.00000  -0.01719  -0.01201   0.00000
  19        4YZ        -0.01985  -0.01386   0.00992   0.00693   0.00000
  20 4   H  1S         -0.03036  -0.04245  -0.03036  -0.04245  -0.04515
  21        2S         -0.04245  -0.02894  -0.04245  -0.02894   0.00469
                           6         7         8         9        10
   6        2S          0.40178
   7        2PX         0.00000   0.46454
   8        2PY         0.00000   0.00000   0.46454
   9        2PZ         0.08562   0.00000   0.00000   0.63845
  10        3S          0.46740   0.00000   0.00000   0.27878   0.59783
  11        3PX         0.00000   0.23851   0.00000   0.00000   0.00000
  12        3PY         0.00000   0.00000   0.23851   0.00000   0.00000
  13        3PZ         0.10489   0.00000   0.00000   0.52789   0.26817
  14        4XX         0.00786   0.00000  -0.01316   0.00756   0.01145
  15        4YY         0.00786   0.00000   0.01316   0.00756   0.01145
  16        4ZZ        -0.01900   0.00000   0.00000  -0.04529  -0.03352
  17        4XY         0.00000  -0.01519   0.00000   0.00000   0.00000
  18        4XZ         0.00000  -0.03420   0.00000   0.00000   0.00000
  19        4YZ         0.00000   0.00000  -0.03420   0.00000   0.00000
  20 4   H  1S          0.09456  -0.23348  -0.13480  -0.10544   0.07439
  21        2S         -0.01202  -0.16310  -0.09417  -0.07675  -0.03540
                          11        12        13        14        15
  11        3PX         0.12246
  12        3PY         0.00000   0.12246
  13        3PZ         0.00000   0.00000   0.43945
  14        4XX         0.00000  -0.00675   0.00688   0.00074
  15        4YY         0.00000   0.00675   0.00688  -0.00001   0.00074
  16        4ZZ         0.00000   0.00000  -0.03855  -0.00064  -0.00064
  17        4XY        -0.00780   0.00000   0.00000   0.00000   0.00000
  18        4XZ        -0.01756   0.00000   0.00000   0.00000   0.00000
  19        4YZ         0.00000  -0.01756   0.00000   0.00097  -0.00097
  20 4   H  1S         -0.11988  -0.06921  -0.07765   0.00465  -0.00299
  21        2S         -0.08374  -0.04835  -0.06361   0.00173  -0.00360
                          16        17        18        19        20
  16        4ZZ         0.00374
  17        4XY         0.00000   0.00050
  18        4XZ         0.00000   0.00112   0.00252
  19        4YZ         0.00000   0.00000   0.00000   0.00252
  20 4   H  1S          0.00402   0.00763   0.01719   0.00992   0.20434
  21        2S          0.00551   0.00533   0.01201   0.00693   0.12150
                          21
  21        2S          0.08559
    Full Mulliken population analysis:
                           1         2         3         4         5
   1 1   H  1S          0.20434
   2        2S          0.07998   0.08559
   3 2   H  1S         -0.00104  -0.00809   0.20434
   4        2S         -0.00809  -0.01352   0.07998   0.08559
   5 3   N  1S         -0.00153   0.00037  -0.00153   0.00037   2.06158
   6        2S          0.02432  -0.00507   0.02432  -0.00507  -0.02699
   7        2PX         0.00000   0.00000   0.06021   0.02534   0.00000
   8        2PY         0.08028   0.03379   0.02007   0.00845   0.00000
   9        2PZ         0.01330   0.00583   0.01330   0.00583   0.00000
  10        3S          0.03012  -0.02485   0.03012  -0.02485  -0.03682
  11        3PX         0.00000   0.00000   0.05288   0.03593   0.00000
  12        3PY         0.07051   0.04790   0.01763   0.01198   0.00000
  13        3PZ         0.01675   0.01335   0.01675   0.01335   0.00000
  14        4XX        -0.00097  -0.00236   0.00175   0.00074  -0.00102
  15        4YY         0.00385   0.00194  -0.00066  -0.00142  -0.00102
  16        4ZZ         0.00080   0.00214   0.00080   0.00214  -0.00039
  17        4XY         0.00000   0.00000   0.00179   0.00026   0.00000
  18        4XZ         0.00000   0.00000   0.00341   0.00049   0.00000
  19        4YZ         0.00454   0.00065   0.00114   0.00016   0.00000
  20 4   H  1S         -0.00104  -0.00809  -0.00104  -0.00809  -0.00153
  21        2S         -0.00809  -0.01352  -0.00809  -0.01352   0.00037
                           6         7         8         9        10
   6        2S          0.40178
   7        2PX         0.00000   0.46454
   8        2PY         0.00000   0.00000   0.46454
   9        2PZ         0.00000   0.00000   0.00000   0.63845
  10        3S          0.36247   0.00000   0.00000   0.00000   0.59783
  11        3PX         0.00000   0.12386   0.00000   0.00000   0.00000
  12        3PY         0.00000   0.00000   0.12386   0.00000   0.00000
  13        3PZ         0.00000   0.00000   0.00000   0.27413   0.00000
  14        4XX         0.00500   0.00000   0.00000   0.00000   0.00767
  15        4YY         0.00500   0.00000   0.00000   0.00000   0.00767
  16        4ZZ        -0.01208   0.00000   0.00000   0.00000  -0.02247
  17        4XY         0.00000   0.00000   0.00000   0.00000   0.00000
  18        4XZ         0.00000   0.00000   0.00000   0.00000   0.00000
  19        4YZ         0.00000   0.00000   0.00000   0.00000   0.00000
  20 4   H  1S          0.02432   0.06021   0.02007   0.01330   0.03012
  21        2S         -0.00507   0.02534   0.00845   0.00583  -0.02485
                          11        12        13        14        15
  11        3PX         0.12246
  12        3PY         0.00000   0.12246
  13        3PZ         0.00000   0.00000   0.43945
  14        4XX         0.00000   0.00000   0.00000   0.00074
  15        4YY         0.00000   0.00000   0.00000   0.00000   0.00074
  16        4ZZ         0.00000   0.00000   0.00000  -0.00021  -0.00021
  17        4XY         0.00000   0.00000   0.00000   0.00000   0.00000
  18        4XZ         0.00000   0.00000   0.00000   0.00000   0.00000
  19        4YZ         0.00000   0.00000   0.00000   0.00000   0.00000
  20 4   H  1S          0.05288   0.01763   0.01675   0.00175  -0.00066
  21        2S          0.03593   0.01198   0.01335   0.00074  -0.00142
                          16        17        18        19        20
  16        4ZZ         0.00374
  17        4XY         0.00000   0.00050
  18        4XZ         0.00000   0.00000   0.00252
  19        4YZ         0.00000   0.00000   0.00000   0.00252
  20 4   H  1S          0.00080   0.00179   0.00341   0.00114   0.20434
  21        2S          0.00214   0.00026   0.00049   0.00016   0.07998
                          21
  21        2S          0.08559
     Gross orbital populations:
                           1
   1 1   H  1S          0.50804
   2        2S          0.19605
   3 2   H  1S          0.50804
   4        2S          0.19605
   5 3   N  1S          1.99187
   6        2S          0.79292
   7        2PX         0.75951
   8        2PY         0.75951
   9        2PZ         0.96997
  10        3S          0.93216
  11        3PX         0.42393
  12        3PY         0.42393
  13        3PZ         0.80388
  14        4XX         0.01382
  15        4YY         0.01382
  16        4ZZ        -0.02280
  17        4XY         0.00458
  18        4XZ         0.01031
  19        4YZ         0.01031
  20 4   H  1S          0.50804
  21        2S          0.19605
          Condensed to atoms (all electrons):
              1          2          3          4
     1  H    0.449897  -0.030743   0.315677  -0.030743
     2  H   -0.030743   0.449897   0.315677  -0.030743
     3  N    0.315677   0.315677   6.940708   0.315677
     4  H   -0.030743  -0.030743   0.315677   0.449897
 Mulliken atomic charges:
              1
     1  H    0.295913
     2  H    0.295913
     3  N   -0.887738
     4  H    0.295913
 Sum of Mulliken charges=   0.00000
 Atomic charges with hydrogens summed into heavy atoms:
              1
     1  H    0.000000
     2  H    0.000000
     3  N    0.000000
     4  H    0.000000
 Sum of Mulliken charges=   0.00000
 APT atomic charges:
              1
     1  H    0.134925
     2  H    0.134926
     3  N   -0.404778
     4  H    0.134926
 Sum of APT charges=   0.00000
 APT Atomic charges with hydrogens summed into heavy atoms:
              1
     1  H    0.000000
     2  H    0.000000
     3  N   -0.000002
     4  H    0.000000
 Sum of APT charges=   0.00000
 Electronic spatial extent (au):  <R**2>=    26.3142
 Charge=     0.0000 electrons
 Dipole moment (field-independent basis, Debye):
    X=     0.0000    Y=     0.0000    Z=    -1.9113  Tot=     1.9113
 Quadrupole moment (field-independent basis, Debye-Ang):
   XX=    -6.1573   YY=    -6.1573   ZZ=    -8.7870
   XY=     0.0000   XZ=     0.0000   YZ=     0.0000
 Traceless Quadrupole moment (field-independent basis, Debye-Ang):
   XX=     0.8766   YY=     0.8766   ZZ=    -1.7531
   XY=     0.0000   XZ=     0.0000   YZ=     0.0000
 Octapole moment (field-independent basis, Debye-Ang**2):
  XXX=     0.0000  YYY=     0.7781  ZZZ=    -1.7154  XYY=     0.0000
  XXY=    -0.7781  XXZ=    -0.8821  XZZ=     0.0000  YZZ=     0.0000
  YYZ=    -0.8821  XYZ=     0.0000
 Hexadecapole moment (field-independent basis, Debye-Ang**3):
 XXXX=    -9.6376 YYYY=    -9.6376 ZZZZ=    -9.8157 XXXY=     0.0000
 XXXZ=     0.0000 YYYX=     0.0000 YYYZ=    -0.3011 ZZZX=     0.0000
 ZZZY=     0.0000 XXYY=    -3.2125 XXZZ=    -3.2750 YYZZ=    -3.2750
 XXYZ=     0.3011 YYXZ=     0.0000 ZZXY=     0.0000
 N-N= 1.187725501346D+01 E-N=-1.555981382754D+02  KE= 5.603371444939D+01
 Symmetry A'   KE= 5.340715706024D+01
 Symmetry A"   KE= 2.626557389146D+00
 Orbital energies and kinetic energies (alpha):
                           1         2
       1  (A1)--O     -14.30602  21.95963
       2  (A1)--O      -0.84529   1.80026
       3  (E)--O       -0.45226   1.31328
       4  (E)--O       -0.45226   1.31328
       5  (A1)--O      -0.25235   1.63041
       6  (A1)--V       0.07860   1.02365
       7  (E)--V        0.16779   1.05969
       8  (E)--V        0.16779   1.05969
       9  (E)--V        0.68325   1.64926
      10  (E)--V        0.68325   1.64926
      11  (A1)--V       0.72190   2.75473
      12  (E)--V        0.91513   3.25752
      13  (E)--V        0.91513   3.25752
      14  (A1)--V       0.92215   2.83506
      15  (A1)--V       1.15589   2.05108
      16  (E)--V        1.67547   2.79911
      17  (E)--V        1.67547   2.79911
      18  (A1)--V       1.94082   3.07442
      19  (E)--V        2.40297   3.73282
      20  (E)--V        2.40297   3.73282
      21  (A1)--V       3.66836   9.58356
 Total kinetic energy from orbitals= 5.603371444939D+01
  Exact polarizability:   9.582   0.000   9.582   0.000   0.000   5.752
 Approx polarizability:  11.478   0.000  11.478   0.000   0.000   6.631
 Full mass-weighted force constant matrix:
 Low frequencies ---   -8.0090   -7.9543   -0.0048    0.0678    0.1893   32.2043
 Low frequencies --- 1131.3925 1726.9607 1726.9610
 Diagonal vibrational polarizability:
        0.1395821       0.1395829       3.2903818
 Harmonic frequencies (cm**-1), IR intensities (KM/Mole), Raman scattering
 activities (A**4/AMU), depolarization ratios for plane and unpolarized
 incident light, reduced masses (AMU), force constants (mDyne/A),
 and normal coordinates:
                     1                      2                      3
                    A1                      E                      E
 Frequencies --  1131.3925              1726.9607              1726.9610
 Red. masses --     1.1798                 1.0643                 1.0643
 Frc consts  --     0.8898                 1.8701                 1.8701
 IR Inten    --   156.4253                15.3646                15.3647
 Atom AN      X      Y      Z        X      Y      Z        X      Y      Z
   1   1     0.00   0.21   0.53     0.76   0.00   0.00     0.00  -0.15  -0.26
   2   1     0.18  -0.11   0.53     0.08   0.39  -0.22     0.39   0.53   0.13
   3   7     0.00   0.00  -0.12    -0.07   0.00   0.00     0.00  -0.07   0.00
   4   1    -0.18  -0.11   0.53     0.08  -0.39   0.22    -0.39   0.53   0.13
                     4                      5                      6
                    A1                      E                      E
 Frequencies --  3436.1618              3567.8704              3567.8706
 Red. masses --     1.0274                 1.0886                 1.0886
 Frc consts  --     7.1471                 8.1649                 8.1649
 IR Inten    --     0.7735                 0.4453                 0.4454
 Atom AN      X      Y      Z        X      Y      Z        X      Y      Z
   1   1     0.00   0.55  -0.18     0.00   0.75  -0.31     0.02   0.00   0.00
   2   1     0.47  -0.27  -0.18    -0.34   0.17   0.15    -0.56   0.34   0.27
   3   7     0.00   0.00   0.04     0.00  -0.08   0.00     0.08   0.00   0.00
   4   1    -0.47  -0.27  -0.18     0.34   0.17   0.15    -0.56  -0.34  -0.27

 -------------------
 - Thermochemistry -
 -------------------
 Temperature   298.150 Kelvin.  Pressure   1.00000 Atm.
 Atom  1 has atomic number  1 and mass   1.00783
 Atom  2 has atomic number  1 and mass   1.00783
 Atom  3 has atomic number  7 and mass  14.00307
 Atom  4 has atomic number  1 and mass   1.00783
 Molecular mass:    17.02655 amu.
 Principal axes and moments of inertia in atomic units:
                           1         2         3
     EIGENVALUES --     6.16066   6.16066   9.51418
           X            0.57139   0.82068   0.00000
           Y            0.82068  -0.57139   0.00000
           Z            0.00000   0.00000   1.00000
 This molecule is an oblate symmetric top.
 Rotational symmetry number  3.
 Rotational temperatures (Kelvin)     14.05918    14.05918     9.10365
 Rotational constants (GHZ):         292.94612   292.94612   189.68955
 Zero-point vibrational energy      90660.3 (Joules/Mol)
                                   21.66833 (Kcal/Mol)
 Vibrational temperatures:   1627.82  2484.71  2484.71  4943.86  5133.36
          (Kelvin)           5133.36
 
 Zero-point correction=                           0.034531 (Hartree/Particle)
 Thermal correction to Energy=                    0.037389
 Thermal correction to Enthalpy=                  0.038333
 Thermal correction to Gibbs Free Energy=         0.016489
 Sum of electronic and zero-point Energies=            -56.513417
 Sum of electronic and thermal Energies=               -56.510559
 Sum of electronic and thermal Enthalpies=             -56.509614
 Sum of electronic and thermal Free Energies=          -56.531459
 
                     E (Thermal)             CV                S
                      KCal/Mol        Cal/Mol-Kelvin    Cal/Mol-Kelvin
 Total                   23.462              6.282             45.976
 Electronic               0.000              0.000              0.000
 Translational            0.889              2.981             34.441
 Rotational               0.889              2.981             11.471
 Vibrational             21.685              0.321              0.064
                       Q            Log10(Q)             Ln(Q)
 Total Bot       0.260475D-07         -7.584234        -17.463343
 Total V=0       0.198950D+09          8.298744         19.108564
 Vib (Bot)       0.131548D-15        -15.880917        -36.567162
 Vib (V=0)       0.100476D+01          0.002061          0.004744
 Electronic      0.100000D+01          0.000000          0.000000
 Translational   0.276150D+07          6.441145         14.831285
 Rotational      0.717031D+02          1.855538          4.272534
 ***** Axes restored to original set *****
 -------------------------------------------------------------------
 Center     Atomic                   Forces (Hartrees/Bohr)
 Number     Number              X              Y              Z
 -------------------------------------------------------------------
    1          1           0.000001358    0.000019190    0.000023207
    2          1           0.000001371    0.000019129   -0.000023256
    3          7           0.000026633   -0.000031498    0.000000049
    4          1          -0.000029362   -0.000006821    0.000000000
 -------------------------------------------------------------------
 Cartesian Forces:  Max     0.000031498 RMS     0.000019208

 GradGradGradGradGradGradGradGradGradGradGradGradGradGradGradGradGradGrad
 Berny optimization.
 Internal  Forces:  Max     0.000029891 RMS     0.000022503
 Search for a local minimum.
 Step number   1 out of a maximum of   2
 All quantities printed in internal units (Hartrees-Bohrs-Radians)
 Second derivative matrix not updated -- analytic derivatives used.
 The second derivative matrix:
                          R1        R2        R3        A1        A2
           R1           0.44366
           R2          -0.00283   0.44366
           R3          -0.00283  -0.00283   0.44366
           A1           0.00842   0.00842  -0.00703   0.05567
           A2           0.02069  -0.00143   0.02319  -0.04315   0.14655
           A3          -0.00143   0.02069   0.02319  -0.04315  -0.02143
           A4           0.01749   0.01749   0.01152   0.02627   0.00400
                          A3        A4
           A3           0.14655
           A4           0.00400   0.03277
     Eigenvalues ---    0.04889   0.15760   0.16623   0.44323   0.44823
     Eigenvalues ---    0.448331000.00000
 Angle between quadratic step and forces=  39.74 degrees.
 Linear search not attempted -- first point.
 Iteration  1 RMS(Cart)=  0.00020651 RMS(Int)=  0.00000009
 Iteration  2 RMS(Cart)=  0.00000005 RMS(Int)=  0.00000007
 Variable       Old X    -DE/DX   Delta X   Delta X   Delta X     New X
                                 (Linear)    (Quad)   (Total)
    R1        1.92645  -0.00002   0.00000   0.00000   0.00000   1.92645
    R2        1.92645  -0.00002   0.00000   0.00000   0.00000   1.92645
    R3        1.92645  -0.00002   0.00000   0.00000   0.00000   1.92645
    A1        1.84612  -0.00001   0.00000  -0.00030  -0.00030   1.84582
    A2        1.84612  -0.00003   0.00000  -0.00030  -0.00030   1.84582
    A3        1.84612  -0.00003   0.00000  -0.00030  -0.00030   1.84582
    A4        1.95342  -0.00003   0.00000  -0.00059  -0.00059   1.95283
         Item               Value     Threshold  Converged?
 Maximum Force            0.000030     0.000450     YES
 RMS     Force            0.000023     0.000300     YES
 Maximum Displacement     0.000275     0.001800     YES
 RMS     Displacement     0.000207     0.001200     YES
 Predicted change in Energy=-1.813698D-08
 Optimization completed.
    -- Stationary point found.
                           ----------------------------
                           !   Optimized Parameters   !
                           ! (Angstroms and Degrees)  !
 --------------------------                            --------------------------
 ! Name  Definition              Value          Derivative Info.                !
 --------------------------------------------------------------------------------
 ! R1    R(1,3)                  1.0194         -DE/DX =    0.0                 !
 ! R2    R(2,3)                  1.0194         -DE/DX =    0.0                 !
 ! R3    R(3,4)                  1.0194         -DE/DX =    0.0                 !
 ! A1    A(1,3,2)              105.7749         -DE/DX =    0.0                 !
 ! A2    A(1,3,4)              105.7749         -DE/DX =    0.0                 !
 ! A3    A(2,3,4)              105.7749         -DE/DX =    0.0                 !
 ! A4    L(1,3,2,4,-2)         111.923          -DE/DX =    0.0                 !
 --------------------------------------------------------------------------------
 GradGradGradGradGradGradGradGradGradGradGradGradGradGradGradGradGradGrad

 1\1\GINC-MELCHETT\Freq\RB3LYP\6-31G(d)\H3N1\XAVIER\30-Jan-2008\0\\# B3
 LYP/6-31G* POP=FULL GFPRINT FREQ GUESS=READ GEOM=CHECK\\InChI=1/H3N/h1
 H3\\0,1\H,-0.5378660702,-0.0915950302,-0.8129866541\H,-0.538334105,-0.
 089467913,0.8129137364\N,0.0770095359,-0.0910782707,0.0001413231\H,0.5
 371334241,0.8186108379,-0.000916344\\Version=x86-Linux-G03RevB.04\Stat
 e=1-A1\HF=-56.5479476\RMSD=3.567e-10\RMSF=1.921e-05\Dipole=-0.4855036,
 0.5741993,-0.000891\DipoleDeriv=0.090016,-0.0401902,-0.1498392,0.00917
 34,0.2408733,0.0917975,-0.0947589,0.026564,0.0738853,0.0898753,-0.0397
 847,0.149953,0.0094722,0.2405641,-0.0922285,0.0947431,-0.0270221,0.074
 3379,-0.4266055,0.1288157,-0.0002014,0.128818,-0.470039,0.0002356,-0.0
 001988,0.0002325,-0.3176899,0.2467127,-0.048838,0.0000869,-0.1474596,-
 0.0114021,0.000195,0.0002152,0.0002236,0.1694667\Polar=7.985078,1.8885
 414,7.348365,-0.0029544,0.0034696,9.5818843\PG=C03V [C3(N1),3SGV(H1)]\
 NImag=0\\0.18467581,0.02227839,0.03606189,0.18675140,0.00031143,0.3093
 0524,0.01403056,0.00319695,-0.02614626,0.18489092,0.00326474,-0.002883
 14,0.00109665,0.02178955,0.03606216,0.02616149,-0.00115815,-0.02709790
 ,-0.18688069,0.00041592,0.30908986,-0.18490478,-0.00151382,-0.16163961
 ,-0.18511041,-0.00107032,0.16169911,0.46515106,-0.03228647,-0.03014396
 ,-0.00503807,-0.03177654,-0.03022581,0.00435887,0.19469017,0.39950828,
 -0.19597600,0.03562765,-0.28309321,0.19611582,-0.03628934,-0.28280567,
 -0.00030132,0.00035608,0.62976625,-0.01380184,-0.02396154,0.00103379,-
 0.01381100,-0.02398419,-0.00097950,-0.09513557,-0.13062668,0.00016189,
 0.12274830,0.00674359,-0.00303441,0.00363046,0.00678996,-0.00295289,-0
 .00361651,-0.19210556,-0.33913919,0.00030500,0.17857178,0.34512647,-0.
 01693728,-0.03478081,0.00088576,0.01691113,0.03477706,0.00081340,0.000
 24220,0.00032252,-0.06386712,-0.00021618,-0.00031878,0.06216816\\-0.00
 000136,-0.00001919,-0.00002321,-0.00000137,-0.00001913,0.00002326,-0.0
 0002663,0.00003150,-0.00000005,0.00002936,0.00000682,0.\\\@


 YE HAVE SOWN MUCH, AND BRING IN LITTLE.
 YE EAT, BUT YE HAVE NOT ENOUGH.
 YE DRINK, BUT YE ARE NOT FILLED WITH DRINK.
 YE CLOTHE YOU, BUT THERE IS NONE WARM.
 AND HE THAT EARNETH WAGES EARNETH WAGES TO PUT
 IT INTO A BAG WITH HOLES.
                                     HAGGAI I,6
 Job cpu time:  0 days  0 hours  0 minutes 12.5 seconds.
 File lengths (MBytes):  RWF=     11 Int=      0 D2E=      0 Chk=      8 Scr=      1
 Normal termination of Gaussian 03 at Wed Jan 30 12:23:08 2008.
