 Entering Gaussian System, Link 0=/usr/baldrick/g03/g03
 Initial command:
 /usr/baldrick/g03/l1.exe /tmp/sf6.fq/Gau-30983.inp -scrdir=/tmp/sf6.fq/
 Entering Link 1 = /usr/baldrick/g03/l1.exe PID=     30985.
  
 Copyright (c) 1988,1990,1992,1993,1995,1998,2003, Gaussian, Inc.
                  All Rights Reserved.
  
 This is the Gaussian(R) 03 program.  It is based on the
 the Gaussian(R) 98 system (copyright 1998, Gaussian, Inc.),
 the Gaussian(R) 94 system (copyright 1995, Gaussian, Inc.),
 the Gaussian 92(TM) system (copyright 1992, Gaussian, Inc.),
 the Gaussian 90(TM) system (copyright 1990, Gaussian, Inc.),
 the Gaussian 88(TM) system (copyright 1988, Gaussian, Inc.),
 the Gaussian 86(TM) system (copyright 1986, Carnegie Mellon
 University), and the Gaussian 82(TM) system (copyright 1983,
 Carnegie Mellon University). Gaussian is a federally registered
 trademark of Gaussian, Inc.
  
 This software contains proprietary and confidential information,
 including trade secrets, belonging to Gaussian, Inc.
  
 This software is provided under written license and may be
 used, copied, transmitted, or stored only in accord with that
 written license.
  
 The following legend is applicable only to US Government
 contracts under DFARS:
  
                    RESTRICTED RIGHTS LEGEND
  
 Use, duplication or disclosure by the US Government is subject
 to restrictions as set forth in subparagraph (c)(1)(ii) of the
 Rights in Technical Data and Computer Software clause at DFARS
 252.227-7013.
  
 Gaussian, Inc.
 Carnegie Office Park, Building 6, Pittsburgh, PA 15106 USA
  
 The following legend is applicable only to US Government
 contracts under FAR:
  
                    RESTRICTED RIGHTS LEGEND
  
 Use, reproduction and disclosure by the US Government is subject
 to restrictions as set forth in subparagraph (c) of the
 Commercial Computer Software - Restricted Rights clause at FAR
 52.227-19.
  
 Gaussian, Inc.
 Carnegie Office Park, Building 6, Pittsburgh, PA 15106 USA
  
  
 ---------------------------------------------------------------
 Warning -- This program may not be used in any manner that
 competes with the business of Gaussian, Inc. or will provide
 assistance to any competitor of Gaussian, Inc.  The licensee
 of this program is prohibited from giving any competitor of
 Gaussian, Inc. access to this program.  By using this program,
 the user acknowledges that Gaussian, Inc. is engaged in the
 business of creating and licensing software in the field of
 computational chemistry and represents and warrants to the
 licensee that it is not a competitor of Gaussian, Inc. and that
 it will not use this program in any manner prohibited above.
 ---------------------------------------------------------------
  

 Cite this work as:
 Gaussian 03, Revision B.04,
 M. J. Frisch, G. W. Trucks, H. B. Schlegel, G. E. Scuseria, 
 M. A. Robb, J. R. Cheeseman, J. A. Montgomery, Jr., T. Vreven, 
 K. N. Kudin, J. C. Burant, J. M. Millam, S. S. Iyengar, J. Tomasi, 
 V. Barone, B. Mennucci, M. Cossi, G. Scalmani, N. Rega, 
 G. A. Petersson, H. Nakatsuji, M. Hada, M. Ehara, K. Toyota, 
 R. Fukuda, J. Hasegawa, M. Ishida, T. Nakajima, Y. Honda, O. Kitao, 
 H. Nakai, M. Klene, X. Li, J. E. Knox, H. P. Hratchian, J. B. Cross, 
 C. Adamo, J. Jaramillo, R. Gomperts, R. E. Stratmann, O. Yazyev, 
 A. J. Austin, R. Cammi, C. Pomelli, J. W. Ochterski, P. Y. Ayala, 
 K. Morokuma, G. A. Voth, P. Salvador, J. J. Dannenberg, 
 V. G. Zakrzewski, S. Dapprich, A. D. Daniels, M. C. Strain, 
 O. Farkas, D. K. Malick, A. D. Rabuck, K. Raghavachari, 
 J. B. Foresman, J. V. Ortiz, Q. Cui, A. G. Baboul, S. Clifford, 
 J. Cioslowski, B. B. Stefanov, G. Liu, A. Liashenko, P. Piskorz, 
 I. Komaromi, R. L. Martin, D. J. Fox, T. Keith, M. A. Al-Laham, 
 C. Y. Peng, A. Nanayakkara, M. Challacombe, P. M. W. Gill, 
 B. Johnson, W. Chen, M. W. Wong, C. Gonzalez, and J. A. Pople, 
 Gaussian, Inc., Pittsburgh PA, 2003.
 
 *********************************************
 Gaussian 03:  x86-Linux-G03RevB.04 2-Jun-2003
                  30-Jan-2008 
 *********************************************
 %chk=../CHK/sf6.chk
 ----------------------------------------------------------
 # b3lyp/6-31g* pop=full gfprint freq guess=read geom=check
 ----------------------------------------------------------
 1/10=4,29=2,30=1,38=1/1,3;
 2/40=1/2;
 3/5=1,6=6,7=1,11=2,16=1,24=100,25=1,30=1,74=-5/1,2,3;
 4/5=1/1;
 5/5=2,38=6/2;
 8/6=4,10=90,11=11/1;
 11/6=1,8=1,9=11,15=111,16=1/1,2,10;
 10/6=1/2;
 6/7=3,18=1,28=1/1;
 7/8=1,10=1,25=1/1,2,3,16;
 1/10=4,30=1/3;
 99//99;
 --------------------------
 InChI=1/F6S/c1-7(2,3,4,5)6
 --------------------------
 Redundant internal coordinates taken from checkpoint file:
 ../CHK/sf6.chk
 Charge =  0 Multiplicity = 1
 F,0,0.0000004365,-0.0007205152,-0.000000437
 S,0,-0.0009699247,0.0002492581,-1.5997504478
 F,0,-0.0009693366,1.5999995632,-1.5987806747
 F,0,-0.0019402859,0.0012190314,-3.1995004586
 F,0,1.59878038,0.0002492583,-1.6007208092
 F,0,-1.6007202294,0.0002492579,-1.5987800864
 F,0,-0.0009705128,-1.599501047,-1.600720221
 Recover connectivity data from disk.

 GradGradGradGradGradGradGradGradGradGradGradGradGradGradGradGradGradGrad
 Berny optimization.
 Initialization pass.
                           ----------------------------
                           !    Initial Parameters    !
                           ! (Angstroms and Degrees)  !
 --------------------------                            --------------------------
 ! Name  Definition              Value          Derivative Info.                !
 --------------------------------------------------------------------------------
 ! R1    R(1,2)                  1.5998         calculate D2E/DX2 analytically  !
 ! R2    R(2,3)                  1.5998         calculate D2E/DX2 analytically  !
 ! R3    R(2,4)                  1.5998         calculate D2E/DX2 analytically  !
 ! R4    R(2,5)                  1.5998         calculate D2E/DX2 analytically  !
 ! R5    R(2,6)                  1.5998         calculate D2E/DX2 analytically  !
 ! R6    R(2,7)                  1.5998         calculate D2E/DX2 analytically  !
 ! A1    A(1,2,3)               90.0            calculate D2E/DX2 analytically  !
 ! A2    A(1,2,5)               90.0            calculate D2E/DX2 analytically  !
 ! A3    A(1,2,6)               90.0            calculate D2E/DX2 analytically  !
 ! A4    A(1,2,7)               90.0            calculate D2E/DX2 analytically  !
 ! A5    A(3,2,4)               90.0            calculate D2E/DX2 analytically  !
 ! A6    A(3,2,5)               90.0            calculate D2E/DX2 analytically  !
 ! A7    A(3,2,6)               90.0            calculate D2E/DX2 analytically  !
 ! A8    A(4,2,5)               90.0            calculate D2E/DX2 analytically  !
 ! A9    A(4,2,6)               90.0            calculate D2E/DX2 analytically  !
 ! A10   A(4,2,7)               90.0            calculate D2E/DX2 analytically  !
 ! A11   A(5,2,7)               90.0            calculate D2E/DX2 analytically  !
 ! A12   A(6,2,7)               90.0            calculate D2E/DX2 analytically  !
 ! A13   L(1,2,4,3,-2)         180.0            calculate D2E/DX2 analytically  !
 ! A14   L(3,2,7,1,-2)         180.0            calculate D2E/DX2 analytically  !
 ! A15   L(5,2,6,1,-2)         180.0            calculate D2E/DX2 analytically  !
 --------------------------------------------------------------------------------
 Trust Radius=3.00D-01 FncErr=1.00D-07 GrdErr=1.00D-07
 Number of steps in this run=   2 maximum allowed number of steps=   2.
 GradGradGradGradGradGradGradGradGradGradGradGradGradGradGradGradGradGrad

                          Input orientation:                          
 ---------------------------------------------------------------------
 Center     Atomic     Atomic              Coordinates (Angstroms)
 Number     Number      Type              X           Y           Z
 ---------------------------------------------------------------------
    1          9             0        0.000000   -0.000721    0.000000
    2         16             0       -0.000970    0.000249   -1.599750
    3          9             0       -0.000969    1.600000   -1.598781
    4          9             0       -0.001940    0.001219   -3.199500
    5          9             0        1.598780    0.000249   -1.600721
    6          9             0       -1.600720    0.000249   -1.598780
    7          9             0       -0.000971   -1.599501   -1.600720
 ---------------------------------------------------------------------
                    Distance matrix (angstroms):
                    1          2          3          4          5
     1  F    0.000000
     2  S    1.599751   0.000000
     3  F    2.262389   1.599751   0.000000
     4  F    3.199501   1.599751   2.262389   0.000000
     5  F    2.262389   1.599751   2.262389   2.262389   0.000000
     6  F    2.262389   1.599751   2.262389   2.262389   3.199501
     7  F    2.262389   1.599751   3.199501   2.262389   2.262389
                    6          7
     6  F    0.000000
     7  F    2.262389   0.000000
 Stoichiometry    F6S
 Framework group  OH[O(S),3C4(F.F)]
 Deg. of freedom     1
 Full point group                 OH      NOp  48
 Largest Abelian subgroup         D2H     NOp   8
 Largest concise Abelian subgroup D2H     NOp   8
                         Standard orientation:                         
 ---------------------------------------------------------------------
 Center     Atomic     Atomic              Coordinates (Angstroms)
 Number     Number      Type              X           Y           Z
 ---------------------------------------------------------------------
    1          9             0        0.000000    0.000000    1.599751
    2         16             0        0.000000    0.000000    0.000000
    3          9             0        0.000000    1.599751    0.000000
    4          9             0        0.000000    0.000000   -1.599751
    5          9             0        1.599751    0.000000    0.000000
    6          9             0       -1.599751    0.000000    0.000000
    7          9             0        0.000000   -1.599751    0.000000
 ---------------------------------------------------------------------
 Rotational constants (GHZ):      2.5985767      2.5985767      2.5985767
 Standard basis: 6-31G(d) (6D, 7F)
 AO basis set:
 Atom F1       Shell     1 S   6     bf    1 -     1          0.000000000000          0.000000000000          3.023090514703
      0.7001713090D+04  0.1819616901D-02
      0.1051366090D+04  0.1391607961D-01
      0.2392856900D+03  0.6840532453D-01
      0.6739744530D+02  0.2331857601D+00
      0.2151995730D+02  0.4712674392D+00
      0.7403101300D+01  0.3566185462D+00
 Atom F1       Shell     2 SP   3    bf    2 -     5          0.000000000000          0.000000000000          3.023090514703
      0.2084795280D+02 -0.1085069751D+00  0.7162872424D-01
      0.4808308340D+01 -0.1464516581D+00  0.3459121027D+00
      0.1344069860D+01  0.1128688581D+01  0.7224699564D+00
 Atom F1       Shell     3 SP   1    bf    6 -     9          0.000000000000          0.000000000000          3.023090514703
      0.3581513930D+00  0.1000000000D+01  0.1000000000D+01
 Atom F1       Shell     4 D   1     bf   10 -    15          0.000000000000          0.000000000000          3.023090514703
      0.8000000000D+00  0.1000000000D+01
 Atom S2       Shell     5 S   6     bf   16 -    16          0.000000000000          0.000000000000          0.000000000000
      0.2191710000D+05  0.1869240849D-02
      0.3301490000D+04  0.1423030646D-01
      0.7541460000D+03  0.6969623166D-01
      0.2127110000D+03  0.2384871083D+00
      0.6798960000D+02  0.4833072195D+00
      0.2305150000D+02  0.3380741536D+00
 Atom S2       Shell     6 SP   6    bf   17 -    20          0.000000000000          0.000000000000          0.000000000000
      0.4237350000D+03 -0.2376770499D-02  0.4061009982D-02
      0.1007100000D+03 -0.3169300665D-01  0.3068129986D-01
      0.3215990000D+02 -0.1133170238D+00  0.1304519994D+00
      0.1180790000D+02  0.5609001177D-01  0.3272049985D+00
      0.4631100000D+01  0.5922551243D+00  0.4528509980D+00
      0.1870250000D+01  0.4550060955D+00  0.2560419989D+00
 Atom S2       Shell     7 SP   3    bf   21 -    24          0.000000000000          0.000000000000          0.000000000000
      0.2615840000D+01 -0.2503731142D+00 -0.1451048955D-01
      0.9221670000D+00  0.6695676310D-01  0.3102627765D+00
      0.3412870000D+00  0.1054506269D+01  0.7544824565D+00
 Atom S2       Shell     8 SP   1    bf   25 -    28          0.000000000000          0.000000000000          0.000000000000
      0.1171670000D+00  0.1000000000D+01  0.1000000000D+01
 Atom S2       Shell     9 D   1     bf   29 -    34          0.000000000000          0.000000000000          0.000000000000
      0.6500000000D+00  0.1000000000D+01
 Atom F3       Shell    10 S   6     bf   35 -    35          0.000000000000          3.023090514703          0.000000000000
      0.7001713090D+04  0.1819616901D-02
      0.1051366090D+04  0.1391607961D-01
      0.2392856900D+03  0.6840532453D-01
      0.6739744530D+02  0.2331857601D+00
      0.2151995730D+02  0.4712674392D+00
      0.7403101300D+01  0.3566185462D+00
 Atom F3       Shell    11 SP   3    bf   36 -    39          0.000000000000          3.023090514703          0.000000000000
      0.2084795280D+02 -0.1085069751D+00  0.7162872424D-01
      0.4808308340D+01 -0.1464516581D+00  0.3459121027D+00
      0.1344069860D+01  0.1128688581D+01  0.7224699564D+00
 Atom F3       Shell    12 SP   1    bf   40 -    43          0.000000000000          3.023090514703          0.000000000000
      0.3581513930D+00  0.1000000000D+01  0.1000000000D+01
 Atom F3       Shell    13 D   1     bf   44 -    49          0.000000000000          3.023090514703          0.000000000000
      0.8000000000D+00  0.1000000000D+01
 Atom F4       Shell    14 S   6     bf   50 -    50          0.000000000000          0.000000000000         -3.023090514703
      0.7001713090D+04  0.1819616901D-02
      0.1051366090D+04  0.1391607961D-01
      0.2392856900D+03  0.6840532453D-01
      0.6739744530D+02  0.2331857601D+00
      0.2151995730D+02  0.4712674392D+00
      0.7403101300D+01  0.3566185462D+00
 Atom F4       Shell    15 SP   3    bf   51 -    54          0.000000000000          0.000000000000         -3.023090514703
      0.2084795280D+02 -0.1085069751D+00  0.7162872424D-01
      0.4808308340D+01 -0.1464516581D+00  0.3459121027D+00
      0.1344069860D+01  0.1128688581D+01  0.7224699564D+00
 Atom F4       Shell    16 SP   1    bf   55 -    58          0.000000000000          0.000000000000         -3.023090514703
      0.3581513930D+00  0.1000000000D+01  0.1000000000D+01
 Atom F4       Shell    17 D   1     bf   59 -    64          0.000000000000          0.000000000000         -3.023090514703
      0.8000000000D+00  0.1000000000D+01
 Atom F5       Shell    18 S   6     bf   65 -    65          3.023090514703          0.000000000000          0.000000000000
      0.7001713090D+04  0.1819616901D-02
      0.1051366090D+04  0.1391607961D-01
      0.2392856900D+03  0.6840532453D-01
      0.6739744530D+02  0.2331857601D+00
      0.2151995730D+02  0.4712674392D+00
      0.7403101300D+01  0.3566185462D+00
 Atom F5       Shell    19 SP   3    bf   66 -    69          3.023090514703          0.000000000000          0.000000000000
      0.2084795280D+02 -0.1085069751D+00  0.7162872424D-01
      0.4808308340D+01 -0.1464516581D+00  0.3459121027D+00
      0.1344069860D+01  0.1128688581D+01  0.7224699564D+00
 Atom F5       Shell    20 SP   1    bf   70 -    73          3.023090514703          0.000000000000          0.000000000000
      0.3581513930D+00  0.1000000000D+01  0.1000000000D+01
 Atom F5       Shell    21 D   1     bf   74 -    79          3.023090514703          0.000000000000          0.000000000000
      0.8000000000D+00  0.1000000000D+01
 Atom F6       Shell    22 S   6     bf   80 -    80         -3.023090514703          0.000000000000          0.000000000000
      0.7001713090D+04  0.1819616901D-02
      0.1051366090D+04  0.1391607961D-01
      0.2392856900D+03  0.6840532453D-01
      0.6739744530D+02  0.2331857601D+00
      0.2151995730D+02  0.4712674392D+00
      0.7403101300D+01  0.3566185462D+00
 Atom F6       Shell    23 SP   3    bf   81 -    84         -3.023090514703          0.000000000000          0.000000000000
      0.2084795280D+02 -0.1085069751D+00  0.7162872424D-01
      0.4808308340D+01 -0.1464516581D+00  0.3459121027D+00
      0.1344069860D+01  0.1128688581D+01  0.7224699564D+00
 Atom F6       Shell    24 SP   1    bf   85 -    88         -3.023090514703          0.000000000000          0.000000000000
      0.3581513930D+00  0.1000000000D+01  0.1000000000D+01
 Atom F6       Shell    25 D   1     bf   89 -    94         -3.023090514703          0.000000000000          0.000000000000
      0.8000000000D+00  0.1000000000D+01
 Atom F7       Shell    26 S   6     bf   95 -    95          0.000000000000         -3.023090514703          0.000000000000
      0.7001713090D+04  0.1819616901D-02
      0.1051366090D+04  0.1391607961D-01
      0.2392856900D+03  0.6840532453D-01
      0.6739744530D+02  0.2331857601D+00
      0.2151995730D+02  0.4712674392D+00
      0.7403101300D+01  0.3566185462D+00
 Atom F7       Shell    27 SP   3    bf   96 -    99          0.000000000000         -3.023090514703          0.000000000000
      0.2084795280D+02 -0.1085069751D+00  0.7162872424D-01
      0.4808308340D+01 -0.1464516581D+00  0.3459121027D+00
      0.1344069860D+01  0.1128688581D+01  0.7224699564D+00
 Atom F7       Shell    28 SP   1    bf  100 -   103          0.000000000000         -3.023090514703          0.000000000000
      0.3581513930D+00  0.1000000000D+01  0.1000000000D+01
 Atom F7       Shell    29 D   1     bf  104 -   109          0.000000000000         -3.023090514703          0.000000000000
      0.8000000000D+00  0.1000000000D+01
 There are    31 symmetry adapted basis functions of AG  symmetry.
 There are     8 symmetry adapted basis functions of B1G symmetry.
 There are     8 symmetry adapted basis functions of B2G symmetry.
 There are     8 symmetry adapted basis functions of B3G symmetry.
 There are     3 symmetry adapted basis functions of AU  symmetry.
 There are    17 symmetry adapted basis functions of B1U symmetry.
 There are    17 symmetry adapted basis functions of B2U symmetry.
 There are    17 symmetry adapted basis functions of B3U symmetry.
 Integral buffers will be    262144 words long.
 Raffenetti 2 integral format.
 Two-electron integral symmetry is turned on.
   109 basis functions,   220 primitive gaussians,   109 cartesian basis functions
    35 alpha electrons       35 beta electrons
       nuclear repulsion energy       553.3436009201 Hartrees.
 NAtoms=    7 NActive=    7 NUniq=    2 SFac= 5.66D+00 NAtFMM=   60 Big=F
 One-electron integrals computed using PRISM.
 NBasis=   109 RedAO= T  NBF=    31     8     8     8     3    17    17    17
 NBsUse=   109 1.00D-06 NBFU=    31     8     8     8     3    17    17    17
 Initial guess read from the checkpoint file:
 ../CHK/sf6.chk
 Initial guess orbital symmetries:
       Occupied  (A1G) (A1G) (EG) (EG) (T1U) (T1U) (T1U) (A1G)
                 (T1U) (T1U) (T1U) (A1G) (T1U) (T1U) (T1U) (EG)
                 (EG) (A1G) (T1U) (T1U) (T1U) (T2G) (T2G) (T2G)
                 (EG) (EG) (T1U) (T1U) (T1U) (T2U) (T2U) (T2U)
                 (T1G) (T1G) (T1G)
       Virtual   (A1G) (T1U) (T1U) (T1U) (A1G) (T1U) (T1U) (T1U)
                 (T2G) (T2G) (T2G) (EG) (EG) (EG) (EG) (T2G) (T2G)
                 (T2G) (T1U) (T1U) (T1U) (A1G) (T2U) (T2U) (T2U)
                 (T1G) (T1G) (T1G) (EG) (EG) (T1U) (T1U) (T1U)
                 (T2U) (T2U) (T2U) (A2U) (T2G) (T2G) (T2G) (EU)
                 (EU) (EG) (EG) (A2G) (T2U) (T2U) (T2U) (T1U) (T1U)
                 (T1U) (T1G) (T1G) (T1G) (T2G) (T2G) (T2G) (T1U)
                 (T1U) (T1U) (A1G) (A1G) (T1U) (T1U) (T1U) (EG)
                 (EG) (EG) (EG) (A1G) (T1U) (T1U) (T1U) (A1G)
 Requested convergence on RMS density matrix=1.00D-08 within 128 cycles.
 Requested convergence on MAX density matrix=1.00D-06.
 Requested convergence on             energy=1.00D-06.
 No special actions if energy rises.
 A guess orbital has undefined symmetry, so N**3 symmetry is turned off.
 SCF Done:  E(RB+HF-LYP) =  -997.106743558     A.U. after    1 cycles
             Convg  =    0.2427D-09             -V/T =  2.0059
             S**2   =   0.0000
 Range of M.O.s used for correlation:     1   109
 NBasis=   109 NAE=    35 NBE=    35 NFC=     0 NFV=     0
 NROrb=    109 NOA=    35 NOB=    35 NVA=    74 NVB=    74
 Symmetrizing basis deriv contribution to polar:
 IMax=3 JMax=2 DiffMx= 0.00D+00
 G2DrvN: will do    8 centers at a time, making    1 passes doing MaxLOS=2.
 FoFDir/FoFCou used for L=0 through L=2.
          Differentiating once with respect to electric field.
                with respect to dipole field.
          Differentiating once with respect to nuclear coordinates.
 Integrals replicated using symmetry in FoFDir.
 MinBra= 0 MaxBra= 2 Meth= 1.
 IRaf=       0 NMat=   9 IRICut=       9 DoRegI=T DoRafI=T ISym2E= 2 JSym2E=2.
          There are   9 degrees of freedom in the 1st order CPHF.
     9 vectors were produced by pass  0.
 AX will form   9 AO Fock derivatives at one time.
     9 vectors were produced by pass  1.
     9 vectors were produced by pass  2.
     9 vectors were produced by pass  3.
     9 vectors were produced by pass  4.
     9 vectors were produced by pass  5.
     9 vectors were produced by pass  6.
     2 vectors were produced by pass  7.
     1 vectors were produced by pass  8.
     1 vectors were produced by pass  9.
 Inv2:  IOpt= 1 Iter= 1 AM= 6.64D-16 Conv= 1.00D-12.
 Inverted reduced A of dimension   67 with in-core refinement.
 Isotropic polarizability for W=    0.000000       24.11 Bohr**3.
 End of Minotr Frequency-dependent properties file   721 does not exist.

 **********************************************************************

            Population analysis using the SCF density.

 **********************************************************************

 Orbital symmetries:
       Occupied  (A1G) (A1G) (EG) (EG) (T1U) (T1U) (T1U) (A1G)
                 (T1U) (T1U) (T1U) (A1G) (T1U) (T1U) (T1U) (EG)
                 (EG) (A1G) (T1U) (T1U) (T1U) (T2G) (T2G) (T2G)
                 (EG) (EG) (T1U) (T1U) (T1U) (T2U) (T2U) (T2U)
                 (T1G) (T1G) (T1G)
       Virtual   (A1G) (T1U) (T1U) (T1U) (A1G) (T1U) (T1U) (T1U)
                 (T2G) (T2G) (T2G) (EG) (EG) (EG) (EG) (T2G) (T2G)
                 (T2G) (T1U) (T1U) (T1U) (A1G) (T2U) (T2U) (T2U)
                 (T1G) (T1G) (T1G) (EG) (EG) (T1U) (T1U) (T1U)
                 (T2U) (T2U) (T2U) (A2U) (T2G) (T2G) (T2G) (EU)
                 (EU) (EG) (EG) (A2G) (T2U) (T2U) (T2U) (T1U) (T1U)
                 (T1U) (T1G) (T1G) (T1G) (T2G) (T2G) (T2G) (T1U)
                 (T1U) (T1U) (A1G) (A1G) (T1U) (T1U) (T1U) (EG)
                 (EG) (EG) (EG) (A1G) (T1U) (T1U) (T1U) (A1G)
 The electronic state is 1-A1G.
 Alpha  occ. eigenvalues --  -89.34514 -24.76762 -24.76762 -24.76762 -24.76762
 Alpha  occ. eigenvalues --  -24.76762 -24.76762  -8.33808  -6.30502  -6.30502
 Alpha  occ. eigenvalues --   -6.30502  -1.39029  -1.27480  -1.27480  -1.27480
 Alpha  occ. eigenvalues --   -1.22860  -1.22860  -0.82135  -0.66204  -0.66204
 Alpha  occ. eigenvalues --   -0.66204  -0.54807  -0.54807  -0.54807  -0.52122
 Alpha  occ. eigenvalues --   -0.52122  -0.46874  -0.46874  -0.46874  -0.46455
 Alpha  occ. eigenvalues --   -0.46455  -0.46455  -0.42739  -0.42739  -0.42739
 Alpha virt. eigenvalues --   -0.08826   0.09460   0.09460   0.09460   0.27825
 Alpha virt. eigenvalues --    0.32619   0.32619   0.32619   0.48246   0.48246
 Alpha virt. eigenvalues --    0.48246   0.87401   0.87401   1.05628   1.05628
 Alpha virt. eigenvalues --    1.05644   1.05644   1.05644   1.10758   1.10758
 Alpha virt. eigenvalues --    1.10758   1.12160   1.15046   1.15046   1.15046
 Alpha virt. eigenvalues --    1.36752   1.36752   1.36752   1.38131   1.38131
 Alpha virt. eigenvalues --    1.47451   1.47451   1.47451   1.64261   1.64261
 Alpha virt. eigenvalues --    1.64261   1.67835   1.78343   1.78343   1.78343
 Alpha virt. eigenvalues --    1.81327   1.81327   1.89988   1.89988   1.91666
 Alpha virt. eigenvalues --    1.95912   1.95912   1.95912   1.96559   1.96559
 Alpha virt. eigenvalues --    1.96559   2.01384   2.01384   2.01384   2.04330
 Alpha virt. eigenvalues --    2.04330   2.04330   2.05055   2.05055   2.05055
 Alpha virt. eigenvalues --    2.30186   2.46890   2.49549   2.49549   2.49549
 Alpha virt. eigenvalues --    3.01010   3.01010   3.93746   3.93746   4.26809
 Alpha virt. eigenvalues --    4.86575   4.86575   4.86575   6.02349
     Molecular Orbital Coefficients
                           1         2         3         4         5
                       (A1G)--O  (A1G)--O   (EG)--O   (EG)--O  (T1U)--O
     EIGENVALUES --   -89.34514 -24.76762 -24.76762 -24.76762 -24.76762
   1 1   F  1S         -0.00007   0.40530  -0.11104   0.56247  -0.09863
   2        2S         -0.00040   0.00765  -0.00221   0.01119  -0.00185
   3        2PX         0.00000   0.00000   0.00000   0.00000   0.00000
   4        2PY         0.00000   0.00000   0.00000   0.00000   0.00000
   5        2PZ         0.00004  -0.00028   0.00008  -0.00039   0.00006
   6        3S          0.00180   0.00784  -0.00163   0.00826  -0.00184
   7        3PX         0.00000   0.00000   0.00000   0.00000   0.00001
   8        3PY         0.00000   0.00000   0.00000   0.00000   0.00002
   9        3PZ        -0.00043  -0.00002  -0.00005   0.00026   0.00001
  10        4XX        -0.00025  -0.00360   0.00098  -0.00443   0.00087
  11        4YY        -0.00025  -0.00360   0.00078  -0.00447   0.00087
  12        4ZZ        -0.00047  -0.00382   0.00094  -0.00476   0.00089
  13        4XY         0.00000   0.00000   0.00000   0.00000   0.00000
  14        4XZ         0.00000   0.00000   0.00000   0.00000   0.00005
  15        4YZ         0.00000   0.00000   0.00000   0.00000   0.00012
  16 2   S  1S          0.99614   0.00001   0.00000   0.00000   0.00000
  17        2S          0.01497   0.00009   0.00000   0.00000   0.00000
  18        2PX         0.00000   0.00000   0.00000   0.00000  -0.00006
  19        2PY         0.00000   0.00000   0.00000   0.00000  -0.00015
  20        2PZ         0.00000   0.00000   0.00000   0.00000   0.00002
  21        3S         -0.02346  -0.00064   0.00000   0.00000   0.00000
  22        3PX         0.00000   0.00000   0.00000   0.00000   0.00018
  23        3PY         0.00000   0.00000   0.00000   0.00000   0.00046
  24        3PZ         0.00000   0.00000   0.00000   0.00000  -0.00007
  25        4S         -0.00073  -0.00415   0.00000   0.00000   0.00000
  26        4PX         0.00000   0.00000   0.00000   0.00000  -0.00070
  27        4PY         0.00000   0.00000   0.00000   0.00000  -0.00173
  28        4PZ         0.00000   0.00000   0.00000   0.00000   0.00027
  29        5XX         0.00858   0.00100  -0.00073  -0.00064   0.00000
  30        5YY         0.00858   0.00100   0.00092  -0.00031   0.00000
  31        5ZZ         0.00858   0.00100  -0.00019   0.00095   0.00000
  32        5XY         0.00000   0.00000   0.00000   0.00000   0.00000
  33        5XZ         0.00000   0.00000   0.00000   0.00000   0.00000
  34        5YZ         0.00000   0.00000   0.00000   0.00000   0.00000
  35 3   F  1S         -0.00007   0.40530   0.54263  -0.18507   0.64445
  36        2S         -0.00040   0.00765   0.01079  -0.00368   0.01211
  37        2PX         0.00000   0.00000   0.00000   0.00000   0.00000
  38        2PY         0.00004  -0.00028  -0.00038   0.00013  -0.00042
  39        2PZ         0.00000   0.00000   0.00000   0.00000   0.00000
  40        3S          0.00180   0.00784   0.00797  -0.00272   0.01200
  41        3PX         0.00000   0.00000   0.00000   0.00000   0.00001
  42        3PY        -0.00043  -0.00002   0.00025  -0.00008  -0.00008
  43        3PZ         0.00000   0.00000   0.00000   0.00000   0.00000
  44        4XX        -0.00025  -0.00360  -0.00426   0.00156  -0.00569
  45        4YY        -0.00047  -0.00382  -0.00459   0.00157  -0.00581
  46        4ZZ        -0.00025  -0.00360  -0.00433   0.00137  -0.00569
  47        4XY         0.00000   0.00000   0.00000   0.00000   0.00005
  48        4XZ         0.00000   0.00000   0.00000   0.00000   0.00000
  49        4YZ         0.00000   0.00000   0.00000   0.00000  -0.00002
  50 4   F  1S         -0.00007   0.40530  -0.11104   0.56247   0.09863
  51        2S         -0.00040   0.00765  -0.00221   0.01119   0.00185
  52        2PX         0.00000   0.00000   0.00000   0.00000   0.00000
  53        2PY         0.00000   0.00000   0.00000   0.00000   0.00000
  54        2PZ        -0.00004   0.00028  -0.00008   0.00039   0.00006
  55        3S          0.00180   0.00784  -0.00163   0.00826   0.00184
  56        3PX         0.00000   0.00000   0.00000   0.00000   0.00001
  57        3PY         0.00000   0.00000   0.00000   0.00000   0.00002
  58        3PZ         0.00043   0.00002   0.00005  -0.00026   0.00001
  59        4XX        -0.00025  -0.00360   0.00098  -0.00443  -0.00087
  60        4YY        -0.00025  -0.00360   0.00078  -0.00447  -0.00087
  61        4ZZ        -0.00047  -0.00382   0.00094  -0.00476  -0.00089
  62        4XY         0.00000   0.00000   0.00000   0.00000   0.00000
  63        4XZ         0.00000   0.00000   0.00000   0.00000  -0.00005
  64        4YZ         0.00000   0.00000   0.00000   0.00000  -0.00012
  65 5   F  1S         -0.00007   0.40530  -0.43159  -0.37739   0.26036
  66        2S         -0.00040   0.00765  -0.00858  -0.00750   0.00489
  67        2PX         0.00004  -0.00028   0.00030   0.00026  -0.00017
  68        2PY         0.00000   0.00000   0.00000   0.00000   0.00000
  69        2PZ         0.00000   0.00000   0.00000   0.00000   0.00000
  70        3S          0.00180   0.00784  -0.00634  -0.00554   0.00485
  71        3PX        -0.00043  -0.00002  -0.00020  -0.00017  -0.00003
  72        3PY         0.00000   0.00000   0.00000   0.00000   0.00002
  73        3PZ         0.00000   0.00000   0.00000   0.00000   0.00000
  74        4XX        -0.00047  -0.00382   0.00365   0.00319  -0.00235
  75        4YY        -0.00025  -0.00360   0.00335   0.00306  -0.00230
  76        4ZZ        -0.00025  -0.00360   0.00348   0.00291  -0.00230
  77        4XY         0.00000   0.00000   0.00000   0.00000   0.00012
  78        4XZ         0.00000   0.00000   0.00000   0.00000  -0.00002
  79        4YZ         0.00000   0.00000   0.00000   0.00000   0.00000
  80 6   F  1S         -0.00007   0.40530  -0.43159  -0.37739  -0.26037
  81        2S         -0.00040   0.00765  -0.00858  -0.00750  -0.00489
  82        2PX        -0.00004   0.00028  -0.00030  -0.00026  -0.00017
  83        2PY         0.00000   0.00000   0.00000   0.00000   0.00000
  84        2PZ         0.00000   0.00000   0.00000   0.00000   0.00000
  85        3S          0.00180   0.00784  -0.00634  -0.00554  -0.00485
  86        3PX         0.00043   0.00002   0.00020   0.00017  -0.00003
  87        3PY         0.00000   0.00000   0.00000   0.00000   0.00002
  88        3PZ         0.00000   0.00000   0.00000   0.00000   0.00000
  89        4XX        -0.00047  -0.00382   0.00365   0.00319   0.00235
  90        4YY        -0.00025  -0.00360   0.00335   0.00306   0.00230
  91        4ZZ        -0.00025  -0.00360   0.00348   0.00291   0.00230
  92        4XY         0.00000   0.00000   0.00000   0.00000  -0.00012
  93        4XZ         0.00000   0.00000   0.00000   0.00000   0.00002
  94        4YZ         0.00000   0.00000   0.00000   0.00000   0.00000
  95 7   F  1S         -0.00007   0.40530   0.54263  -0.18507  -0.64446
  96        2S         -0.00040   0.00765   0.01079  -0.00368  -0.01211
  97        2PX         0.00000   0.00000   0.00000   0.00000   0.00000
  98        2PY        -0.00004   0.00028   0.00038  -0.00013  -0.00042
  99        2PZ         0.00000   0.00000   0.00000   0.00000   0.00000
 100        3S          0.00180   0.00784   0.00797  -0.00272  -0.01200
 101        3PX         0.00000   0.00000   0.00000   0.00000   0.00001
 102        3PY         0.00043   0.00002  -0.00025   0.00008  -0.00008
 103        3PZ         0.00000   0.00000   0.00000   0.00000   0.00000
 104        4XX        -0.00025  -0.00360  -0.00426   0.00156   0.00569
 105        4YY        -0.00047  -0.00382  -0.00459   0.00157   0.00581
 106        4ZZ        -0.00025  -0.00360  -0.00433   0.00137   0.00569
 107        4XY         0.00000   0.00000   0.00000   0.00000  -0.00005
 108        4XZ         0.00000   0.00000   0.00000   0.00000   0.00000
 109        4YZ         0.00000   0.00000   0.00000   0.00000   0.00002
                           6         7         8         9        10
                       (T1U)--O  (T1U)--O  (A1G)--O  (T1U)--O  (T1U)--O
     EIGENVALUES --   -24.76762 -24.76762  -8.33808  -6.30502  -6.30502
   1 1   F  1S         -0.29803   0.62793   0.00026   0.00027  -0.00004
   2        2S         -0.00560   0.01180   0.00190   0.00262  -0.00041
   3        2PX         0.00000   0.00000   0.00000   0.00000  -0.00003
   4        2PY         0.00000   0.00000   0.00000   0.00003   0.00016
   5        2PZ         0.00019  -0.00040  -0.00024  -0.00038   0.00006
   6        3S         -0.00555   0.01169  -0.00707  -0.00972   0.00152
   7        3PX         0.00002   0.00001   0.00000  -0.00002   0.00021
   8        3PY        -0.00001   0.00000   0.00000  -0.00020  -0.00125
   9        3PZ         0.00004  -0.00007   0.00313   0.00410  -0.00064
  10        4XX         0.00263  -0.00554   0.00126   0.00163  -0.00025
  11        4YY         0.00263  -0.00554   0.00126   0.00163  -0.00025
  12        4ZZ         0.00269  -0.00566   0.00035   0.00093  -0.00015
  13        4XY         0.00000   0.00000   0.00000   0.00000   0.00000
  14        4XZ         0.00011   0.00006   0.00000   0.00002  -0.00015
  15        4YZ        -0.00005  -0.00001   0.00000   0.00014   0.00087
  16 2   S  1S          0.00000   0.00000  -0.28018   0.00000   0.00000
  17        2S          0.00000   0.00000   1.02334   0.00000   0.00000
  18        2PX        -0.00013  -0.00007   0.00000   0.01693  -0.16356
  19        2PY         0.00006   0.00001   0.00000   0.15782   0.96582
  20        2PZ         0.00007  -0.00015   0.00000   0.97865  -0.15292
  21        3S          0.00000   0.00000   0.06070   0.00000   0.00000
  22        3PX         0.00040   0.00022   0.00000   0.00051  -0.00493
  23        3PY        -0.00020  -0.00002   0.00000   0.00476   0.02913
  24        3PZ        -0.00021   0.00044   0.00000   0.02952  -0.00461
  25        4S          0.00000   0.00000   0.00210   0.00000   0.00000
  26        4PX        -0.00154  -0.00084   0.00000   0.00001  -0.00006
  27        4PY         0.00075   0.00008   0.00000   0.00006   0.00038
  28        4PZ         0.00080  -0.00169   0.00000   0.00038  -0.00006
  29        5XX         0.00000   0.00000  -0.01139   0.00000   0.00000
  30        5YY         0.00000   0.00000  -0.01139   0.00000   0.00000
  31        5ZZ         0.00000   0.00000  -0.01139   0.00000   0.00000
  32        5XY         0.00000   0.00000   0.00000   0.00000   0.00000
  33        5XZ         0.00000   0.00000   0.00000   0.00000   0.00000
  34        5YZ         0.00000   0.00000   0.00000   0.00000   0.00000
  35 3   F  1S         -0.27678  -0.03014   0.00026   0.00004   0.00027
  36        2S         -0.00520  -0.00057   0.00190   0.00042   0.00258
  37        2PX         0.00000   0.00000   0.00000   0.00000  -0.00003
  38        2PY         0.00018   0.00002  -0.00024  -0.00006  -0.00037
  39        2PZ         0.00000   0.00000   0.00000   0.00016  -0.00003
  40        3S         -0.00515  -0.00056  -0.00707  -0.00157  -0.00959
  41        3PX         0.00002   0.00001   0.00000  -0.00002   0.00021
  42        3PY         0.00003   0.00000   0.00313   0.00066   0.00405
  43        3PZ        -0.00001   0.00002   0.00000  -0.00126   0.00020
  44        4XX         0.00244   0.00027   0.00126   0.00026   0.00161
  45        4YY         0.00249   0.00027   0.00035   0.00015   0.00092
  46        4ZZ         0.00244   0.00027   0.00126   0.00026   0.00161
  47        4XY         0.00011   0.00006   0.00000   0.00002  -0.00015
  48        4XZ         0.00000   0.00000   0.00000   0.00000   0.00000
  49        4YZ        -0.00006   0.00012   0.00000   0.00088  -0.00014
  50 4   F  1S          0.29803  -0.62793   0.00026  -0.00027   0.00004
  51        2S          0.00560  -0.01180   0.00190  -0.00262   0.00041
  52        2PX         0.00000   0.00000   0.00000   0.00000  -0.00003
  53        2PY         0.00000   0.00000   0.00000   0.00003   0.00016
  54        2PZ         0.00019  -0.00040   0.00024  -0.00038   0.00006
  55        3S          0.00555  -0.01169  -0.00707   0.00972  -0.00152
  56        3PX         0.00002   0.00001   0.00000  -0.00002   0.00021
  57        3PY        -0.00001   0.00000   0.00000  -0.00020  -0.00125
  58        3PZ         0.00004  -0.00007  -0.00313   0.00410  -0.00064
  59        4XX        -0.00263   0.00554   0.00126  -0.00163   0.00025
  60        4YY        -0.00263   0.00554   0.00126  -0.00163   0.00025
  61        4ZZ        -0.00269   0.00566   0.00035  -0.00093   0.00015
  62        4XY         0.00000   0.00000   0.00000   0.00000   0.00000
  63        4XZ        -0.00011  -0.00006   0.00000  -0.00002   0.00015
  64        4YZ         0.00005   0.00001   0.00000  -0.00014  -0.00087
  65 5   F  1S          0.57220   0.31247   0.00026   0.00000  -0.00005
  66        2S          0.01075   0.00587   0.00190   0.00005  -0.00044
  67        2PX        -0.00037  -0.00020  -0.00024  -0.00001   0.00006
  68        2PY         0.00000   0.00000   0.00000   0.00003   0.00016
  69        2PZ         0.00000   0.00000   0.00000   0.00016  -0.00003
  70        3S          0.01066   0.00582  -0.00707  -0.00017   0.00162
  71        3PX        -0.00007  -0.00004   0.00313   0.00007  -0.00069
  72        3PY        -0.00001   0.00000   0.00000  -0.00020  -0.00125
  73        3PZ        -0.00001   0.00002   0.00000  -0.00126   0.00020
  74        4XX        -0.00516  -0.00282   0.00035   0.00002  -0.00016
  75        4YY        -0.00505  -0.00276   0.00126   0.00003  -0.00027
  76        4ZZ        -0.00505  -0.00276   0.00126   0.00003  -0.00027
  77        4XY        -0.00005  -0.00001   0.00000   0.00014   0.00087
  78        4XZ        -0.00006   0.00012   0.00000   0.00088  -0.00014
  79        4YZ         0.00000   0.00000   0.00000   0.00000   0.00000
  80 6   F  1S         -0.57220  -0.31247   0.00026   0.00000   0.00005
  81        2S         -0.01075  -0.00587   0.00190  -0.00005   0.00044
  82        2PX        -0.00037  -0.00020   0.00024  -0.00001   0.00006
  83        2PY         0.00000   0.00000   0.00000   0.00003   0.00016
  84        2PZ         0.00000   0.00000   0.00000   0.00016  -0.00003
  85        3S         -0.01066  -0.00582  -0.00707   0.00017  -0.00162
  86        3PX        -0.00007  -0.00004  -0.00313   0.00007  -0.00069
  87        3PY        -0.00001   0.00000   0.00000  -0.00020  -0.00125
  88        3PZ        -0.00001   0.00002   0.00000  -0.00126   0.00020
  89        4XX         0.00516   0.00282   0.00035  -0.00002   0.00016
  90        4YY         0.00505   0.00276   0.00126  -0.00003   0.00027
  91        4ZZ         0.00505   0.00276   0.00126  -0.00003   0.00027
  92        4XY         0.00005   0.00001   0.00000  -0.00014  -0.00087
  93        4XZ         0.00006  -0.00012   0.00000  -0.00088   0.00014
  94        4YZ         0.00000   0.00000   0.00000   0.00000   0.00000
  95 7   F  1S          0.27678   0.03014   0.00026  -0.00004  -0.00027
  96        2S          0.00520   0.00057   0.00190  -0.00042  -0.00258
  97        2PX         0.00000   0.00000   0.00000   0.00000  -0.00003
  98        2PY         0.00018   0.00002   0.00024  -0.00006  -0.00037
  99        2PZ         0.00000   0.00000   0.00000   0.00016  -0.00003
 100        3S          0.00515   0.00056  -0.00707   0.00157   0.00959
 101        3PX         0.00002   0.00001   0.00000  -0.00002   0.00021
 102        3PY         0.00003   0.00000  -0.00313   0.00066   0.00405
 103        3PZ        -0.00001   0.00002   0.00000  -0.00126   0.00020
 104        4XX        -0.00244  -0.00027   0.00126  -0.00026  -0.00161
 105        4YY        -0.00249  -0.00027   0.00035  -0.00015  -0.00092
 106        4ZZ        -0.00244  -0.00027   0.00126  -0.00026  -0.00161
 107        4XY        -0.00011  -0.00006   0.00000  -0.00002   0.00015
 108        4XZ         0.00000   0.00000   0.00000   0.00000   0.00000
 109        4YZ         0.00006  -0.00012   0.00000  -0.00088   0.00014
                          11        12        13        14        15
                       (T1U)--O  (A1G)--O  (T1U)--O  (T1U)--O  (T1U)--O
     EIGENVALUES --    -6.30502  -1.39029  -1.27480  -1.27480  -1.27480
   1 1   F  1S         -0.00001  -0.07633  -0.15634  -0.01337   0.00418
   2        2S         -0.00011   0.16987   0.35171   0.03007  -0.00940
   3        2PX         0.00016   0.00000  -0.00116   0.01273  -0.00264
   4        2PY         0.00003   0.00000   0.00011   0.00266   0.01278
   5        2PZ         0.00002  -0.05220  -0.06706  -0.00573   0.00179
   6        3S          0.00042   0.15054   0.32282   0.02760  -0.00863
   7        3PX        -0.00126   0.00000  -0.00046   0.00510  -0.00106
   8        3PY        -0.00021   0.00000   0.00005   0.00106   0.00512
   9        3PZ        -0.00018  -0.02666  -0.03910  -0.00334   0.00104
  10        4XX        -0.00007   0.00297   0.00520   0.00044  -0.00014
  11        4YY        -0.00007   0.00297   0.00520   0.00044  -0.00014
  12        4ZZ        -0.00004   0.01496   0.02704   0.00231  -0.00072
  13        4XY         0.00000   0.00000   0.00000   0.00000   0.00000
  14        4XZ         0.00088   0.00000  -0.00001   0.00007  -0.00001
  15        4YZ         0.00014   0.00000   0.00000   0.00001   0.00007
  16 2   S  1S          0.00000   0.04129   0.00000   0.00000   0.00000
  17        2S          0.00000  -0.18284   0.00000   0.00000   0.00000
  18        2PX         0.97770   0.00000   0.00767  -0.08425   0.01746
  19        2PY         0.15884   0.00000  -0.00076  -0.01759  -0.08457
  20        2PZ        -0.04253   0.00000  -0.08604  -0.00736   0.00230
  21        3S          0.00000   0.37398   0.00000   0.00000   0.00000
  22        3PX         0.02949   0.00000  -0.01588   0.17446  -0.03614
  23        3PY         0.00479   0.00000   0.00157   0.03642   0.17512
  24        3PZ        -0.00128   0.00000   0.17816   0.01523  -0.00476
  25        4S          0.00000  -0.01125   0.00000   0.00000   0.00000
  26        4PX         0.00038   0.00000   0.00068  -0.00745   0.00154
  27        4PY         0.00006   0.00000  -0.00007  -0.00156  -0.00748
  28        4PZ        -0.00002   0.00000  -0.00761  -0.00065   0.00020
  29        5XX         0.00000  -0.00293   0.00000   0.00000   0.00000
  30        5YY         0.00000  -0.00293   0.00000   0.00000   0.00000
  31        5ZZ         0.00000  -0.00293   0.00000   0.00000   0.00000
  32        5XY         0.00000   0.00000   0.00000   0.00000   0.00000
  33        5XZ         0.00000   0.00000   0.00000   0.00000   0.00000
  34        5YZ         0.00000   0.00000   0.00000   0.00000   0.00000
  35 3   F  1S          0.00004  -0.07633  -0.00137  -0.03196  -0.15367
  36        2S          0.00042   0.16987   0.00309   0.07191   0.34571
  37        2PX         0.00016   0.00000  -0.00116   0.01273  -0.00264
  38        2PY        -0.00006  -0.05220  -0.00059  -0.01371  -0.06592
  39        2PZ        -0.00001   0.00000   0.01300   0.00111  -0.00035
  40        3S         -0.00158   0.15054   0.00284   0.06600   0.31731
  41        3PX        -0.00126   0.00000  -0.00046   0.00510  -0.00106
  42        3PY         0.00067  -0.02666  -0.00034  -0.00799  -0.03843
  43        3PZ         0.00005   0.00000   0.00521   0.00045  -0.00014
  44        4XX         0.00026   0.00297   0.00005   0.00106   0.00511
  45        4YY         0.00015   0.01496   0.00024   0.00553   0.02658
  46        4ZZ         0.00026   0.00297   0.00005   0.00106   0.00511
  47        4XY         0.00088   0.00000  -0.00001   0.00007  -0.00001
  48        4XZ         0.00000   0.00000   0.00000   0.00000   0.00000
  49        4YZ        -0.00004   0.00000   0.00007   0.00001   0.00000
  50 4   F  1S          0.00001  -0.07633   0.15634   0.01337  -0.00418
  51        2S          0.00011   0.16987  -0.35171  -0.03007   0.00940
  52        2PX         0.00016   0.00000  -0.00116   0.01273  -0.00264
  53        2PY         0.00003   0.00000   0.00011   0.00266   0.01278
  54        2PZ         0.00002   0.05220  -0.06706  -0.00573   0.00179
  55        3S         -0.00042   0.15054  -0.32282  -0.02760   0.00863
  56        3PX        -0.00126   0.00000  -0.00046   0.00510  -0.00106
  57        3PY        -0.00021   0.00000   0.00005   0.00106   0.00512
  58        3PZ        -0.00018   0.02666  -0.03910  -0.00334   0.00104
  59        4XX         0.00007   0.00297  -0.00520  -0.00044   0.00014
  60        4YY         0.00007   0.00297  -0.00520  -0.00044   0.00014
  61        4ZZ         0.00004   0.01496  -0.02704  -0.00231   0.00072
  62        4XY         0.00000   0.00000   0.00000   0.00000   0.00000
  63        4XZ        -0.00088   0.00000   0.00001  -0.00007   0.00001
  64        4YZ        -0.00014   0.00000   0.00000  -0.00001  -0.00007
  65 5   F  1S          0.00027  -0.07633   0.01394  -0.15310   0.03172
  66        2S          0.00261   0.16987  -0.03135   0.34441  -0.07136
  67        2PX        -0.00038  -0.05220   0.00598  -0.06567   0.01361
  68        2PY         0.00003   0.00000   0.00011   0.00266   0.01278
  69        2PZ        -0.00001   0.00000   0.01300   0.00111  -0.00035
  70        3S         -0.00971   0.15054  -0.02878   0.31612  -0.06549
  71        3PX         0.00410  -0.02666   0.00349  -0.03829   0.00793
  72        3PY        -0.00021   0.00000   0.00005   0.00106   0.00512
  73        3PZ         0.00005   0.00000   0.00521   0.00045  -0.00014
  74        4XX         0.00093   0.01496  -0.00241   0.02648  -0.00549
  75        4YY         0.00163   0.00297  -0.00046   0.00509  -0.00106
  76        4ZZ         0.00163   0.00297  -0.00046   0.00509  -0.00106
  77        4XY         0.00014   0.00000   0.00000   0.00001   0.00007
  78        4XZ        -0.00004   0.00000   0.00007   0.00001   0.00000
  79        4YZ         0.00000   0.00000   0.00000   0.00000   0.00000
  80 6   F  1S         -0.00027  -0.07633  -0.01394   0.15310  -0.03172
  81        2S         -0.00261   0.16987   0.03135  -0.34441   0.07136
  82        2PX        -0.00038   0.05220   0.00598  -0.06567   0.01361
  83        2PY         0.00003   0.00000   0.00011   0.00266   0.01278
  84        2PZ        -0.00001   0.00000   0.01300   0.00111  -0.00035
  85        3S          0.00971   0.15054   0.02878  -0.31612   0.06549
  86        3PX         0.00410   0.02666   0.00349  -0.03829   0.00793
  87        3PY        -0.00021   0.00000   0.00005   0.00106   0.00512
  88        3PZ         0.00005   0.00000   0.00521   0.00045  -0.00014
  89        4XX        -0.00093   0.01496   0.00241  -0.02648   0.00549
  90        4YY        -0.00163   0.00297   0.00046  -0.00509   0.00106
  91        4ZZ        -0.00163   0.00297   0.00046  -0.00509   0.00106
  92        4XY        -0.00014   0.00000   0.00000  -0.00001  -0.00007
  93        4XZ         0.00004   0.00000  -0.00007  -0.00001   0.00000
  94        4YZ         0.00000   0.00000   0.00000   0.00000   0.00000
  95 7   F  1S         -0.00004  -0.07633   0.00137   0.03196   0.15367
  96        2S         -0.00042   0.16987  -0.00309  -0.07191  -0.34571
  97        2PX         0.00016   0.00000  -0.00116   0.01273  -0.00264
  98        2PY        -0.00006   0.05220  -0.00059  -0.01371  -0.06592
  99        2PZ        -0.00001   0.00000   0.01300   0.00111  -0.00035
 100        3S          0.00158   0.15054  -0.00284  -0.06600  -0.31731
 101        3PX        -0.00126   0.00000  -0.00046   0.00510  -0.00106
 102        3PY         0.00067   0.02666  -0.00034  -0.00799  -0.03843
 103        3PZ         0.00005   0.00000   0.00521   0.00045  -0.00014
 104        4XX        -0.00026   0.00297  -0.00005  -0.00106  -0.00511
 105        4YY        -0.00015   0.01496  -0.00024  -0.00553  -0.02658
 106        4ZZ        -0.00026   0.00297  -0.00005  -0.00106  -0.00511
 107        4XY        -0.00088   0.00000   0.00001  -0.00007   0.00001
 108        4XZ         0.00000   0.00000   0.00000   0.00000   0.00000
 109        4YZ         0.00004   0.00000  -0.00007  -0.00001   0.00000
                          16        17        18        19        20
                        (EG)--O   (EG)--O  (A1G)--O  (T1U)--O  (T1U)--O
     EIGENVALUES --    -1.22860  -1.22860  -0.82135  -0.66204  -0.66204
   1 1   F  1S         -0.12711   0.05019   0.05860   0.06049   0.00018
   2        2S          0.28677  -0.11324  -0.13717  -0.13444  -0.00040
   3        2PX         0.00000   0.00000   0.00000  -0.00011   0.10935
   4        2PY         0.00000   0.00000   0.00000  -0.00322   0.00724
   5        2PZ        -0.04079   0.01611  -0.13643  -0.31841  -0.00095
   6        3S          0.27540  -0.10875  -0.15413  -0.20307  -0.00061
   7        3PX         0.00000   0.00000   0.00000  -0.00007   0.06864
   8        3PY         0.00000   0.00000   0.00000  -0.00202   0.00455
   9        3PZ        -0.02687   0.01061  -0.07619  -0.17908  -0.00054
  10        4XX         0.00357  -0.00254  -0.00516  -0.00247  -0.00001
  11        4YY         0.00434  -0.00058  -0.00516  -0.00247  -0.00001
  12        4ZZ         0.01454  -0.00574   0.00729   0.01739   0.00005
  13        4XY         0.00000   0.00000   0.00000   0.00000   0.00000
  14        4XZ         0.00000   0.00000   0.00000   0.00001  -0.00754
  15        4YZ         0.00000   0.00000   0.00000   0.00022  -0.00050
  16 2   S  1S          0.00000   0.00000   0.06129   0.00000   0.00000
  17        2S          0.00000   0.00000  -0.25855   0.00000   0.00000
  18        2PX         0.00000   0.00000   0.00000   0.00018  -0.17580
  19        2PY         0.00000   0.00000   0.00000   0.00518  -0.01164
  20        2PZ         0.00000   0.00000   0.00000  -0.17611  -0.00053
  21        3S          0.00000   0.00000   0.70192   0.00000   0.00000
  22        3PX         0.00000   0.00000   0.00000  -0.00049   0.46662
  23        3PY         0.00000   0.00000   0.00000  -0.01374   0.03091
  24        3PZ         0.00000   0.00000   0.00000   0.46745   0.00140
  25        4S          0.00000   0.00000  -0.03077   0.00000   0.00000
  26        4PX         0.00000   0.00000   0.00000  -0.00001   0.00648
  27        4PY         0.00000   0.00000   0.00000  -0.00019   0.00043
  28        4PZ         0.00000   0.00000   0.00000   0.00650   0.00002
  29        5XX        -0.05765  -0.04578  -0.01319   0.00000   0.00000
  30        5YY        -0.01082   0.07281  -0.01319   0.00000   0.00000
  31        5ZZ         0.06847  -0.02704  -0.01319   0.00000   0.00000
  32        5XY         0.00000   0.00000   0.00000   0.00000   0.00000
  33        5XZ         0.00000   0.00000   0.00000   0.00000   0.00000
  34        5YZ         0.00000   0.00000   0.00000   0.00000   0.00000
  35 3   F  1S          0.02009  -0.13517   0.05860  -0.00178   0.00400
  36        2S         -0.04532   0.30497  -0.13717   0.00395  -0.00889
  37        2PX         0.00000   0.00000   0.00000  -0.00011   0.10935
  38        2PY         0.00645  -0.04338  -0.13643   0.00936  -0.02105
  39        2PZ         0.00000   0.00000   0.00000   0.10954   0.00033
  40        3S         -0.04352   0.29288  -0.15413   0.00597  -0.01343
  41        3PX         0.00000   0.00000   0.00000  -0.00007   0.06864
  42        3PY         0.00425  -0.02857  -0.07619   0.00526  -0.01184
  43        3PZ         0.00000   0.00000   0.00000   0.06876   0.00021
  44        4XX        -0.00167   0.00405  -0.00516   0.00007  -0.00016
  45        4YY        -0.00230   0.01547   0.00729  -0.00051   0.00115
  46        4ZZ         0.00042   0.00436  -0.00516   0.00007  -0.00016
  47        4XY         0.00000   0.00000   0.00000   0.00001  -0.00754
  48        4XZ         0.00000   0.00000   0.00000   0.00000   0.00000
  49        4YZ         0.00000   0.00000   0.00000  -0.00755  -0.00002
  50 4   F  1S         -0.12711   0.05019   0.05860  -0.06049  -0.00018
  51        2S          0.28677  -0.11324  -0.13717   0.13444   0.00040
  52        2PX         0.00000   0.00000   0.00000  -0.00011   0.10935
  53        2PY         0.00000   0.00000   0.00000  -0.00322   0.00724
  54        2PZ         0.04079  -0.01611   0.13643  -0.31841  -0.00095
  55        3S          0.27540  -0.10875  -0.15413   0.20307   0.00061
  56        3PX         0.00000   0.00000   0.00000  -0.00007   0.06864
  57        3PY         0.00000   0.00000   0.00000  -0.00202   0.00455
  58        3PZ         0.02687  -0.01061   0.07619  -0.17908  -0.00054
  59        4XX         0.00357  -0.00254  -0.00516   0.00247   0.00001
  60        4YY         0.00434  -0.00058  -0.00516   0.00247   0.00001
  61        4ZZ         0.01454  -0.00574   0.00729  -0.01739  -0.00005
  62        4XY         0.00000   0.00000   0.00000   0.00000   0.00000
  63        4XZ         0.00000   0.00000   0.00000  -0.00001   0.00754
  64        4YZ         0.00000   0.00000   0.00000  -0.00022   0.00050
  65 5   F  1S          0.10702   0.08498   0.05860  -0.00006   0.06038
  66        2S         -0.24145  -0.19173  -0.13717   0.00014  -0.13420
  67        2PX         0.03434   0.02727  -0.13643   0.00033  -0.31785
  68        2PY         0.00000   0.00000   0.00000  -0.00322   0.00724
  69        2PZ         0.00000   0.00000   0.00000   0.10954   0.00033
  70        3S         -0.23188  -0.18413  -0.15413   0.00021  -0.20271
  71        3PX         0.02262   0.01796  -0.07619   0.00019  -0.17876
  72        3PY         0.00000   0.00000   0.00000  -0.00202   0.00455
  73        3PZ         0.00000   0.00000   0.00000   0.06876   0.00021
  74        4XX        -0.01225  -0.00972   0.00729  -0.00002   0.01735
  75        4YY        -0.00399  -0.00182  -0.00516   0.00000  -0.00246
  76        4ZZ        -0.00267  -0.00347  -0.00516   0.00000  -0.00246
  77        4XY         0.00000   0.00000   0.00000   0.00022  -0.00050
  78        4XZ         0.00000   0.00000   0.00000  -0.00755  -0.00002
  79        4YZ         0.00000   0.00000   0.00000   0.00000   0.00000
  80 6   F  1S          0.10702   0.08498   0.05860   0.00006  -0.06038
  81        2S         -0.24145  -0.19173  -0.13717  -0.00014   0.13420
  82        2PX        -0.03434  -0.02727   0.13643   0.00033  -0.31785
  83        2PY         0.00000   0.00000   0.00000  -0.00322   0.00724
  84        2PZ         0.00000   0.00000   0.00000   0.10954   0.00033
  85        3S         -0.23188  -0.18413  -0.15413  -0.00021   0.20271
  86        3PX        -0.02262  -0.01796   0.07619   0.00019  -0.17876
  87        3PY         0.00000   0.00000   0.00000  -0.00202   0.00455
  88        3PZ         0.00000   0.00000   0.00000   0.06876   0.00021
  89        4XX        -0.01225  -0.00972   0.00729   0.00002  -0.01735
  90        4YY        -0.00399  -0.00182  -0.00516   0.00000   0.00246
  91        4ZZ        -0.00267  -0.00347  -0.00516   0.00000   0.00246
  92        4XY         0.00000   0.00000   0.00000  -0.00022   0.00050
  93        4XZ         0.00000   0.00000   0.00000   0.00755   0.00002
  94        4YZ         0.00000   0.00000   0.00000   0.00000   0.00000
  95 7   F  1S          0.02009  -0.13517   0.05860   0.00178  -0.00400
  96        2S         -0.04532   0.30497  -0.13717  -0.00395   0.00889
  97        2PX         0.00000   0.00000   0.00000  -0.00011   0.10935
  98        2PY        -0.00645   0.04338   0.13643   0.00936  -0.02105
  99        2PZ         0.00000   0.00000   0.00000   0.10954   0.00033
 100        3S         -0.04352   0.29288  -0.15413  -0.00597   0.01343
 101        3PX         0.00000   0.00000   0.00000  -0.00007   0.06864
 102        3PY        -0.00425   0.02857   0.07619   0.00526  -0.01184
 103        3PZ         0.00000   0.00000   0.00000   0.06876   0.00021
 104        4XX        -0.00167   0.00405  -0.00516  -0.00007   0.00016
 105        4YY        -0.00230   0.01547   0.00729   0.00051  -0.00115
 106        4ZZ         0.00042   0.00436  -0.00516  -0.00007   0.00016
 107        4XY         0.00000   0.00000   0.00000  -0.00001   0.00754
 108        4XZ         0.00000   0.00000   0.00000   0.00000   0.00000
 109        4YZ         0.00000   0.00000   0.00000   0.00755   0.00002
                          21        22        23        24        25
                       (T1U)--O  (T2G)--O  (T2G)--O  (T2G)--O   (EG)--O
     EIGENVALUES --    -0.66204  -0.54807  -0.54807  -0.54807  -0.52122
   1 1   F  1S          0.00177   0.00000   0.00000   0.00000  -0.01892
   2        2S         -0.00393   0.00000   0.00000   0.00000   0.02949
   3        2PX        -0.00725   0.29518  -0.05835  -0.04499   0.00000
   4        2PY         0.10930   0.06043   0.29801   0.00998   0.00000
   5        2PZ        -0.00931   0.00000   0.00000   0.00000   0.34770
   6        3S         -0.00594   0.00000   0.00000   0.00000   0.07354
   7        3PX        -0.00455   0.22256  -0.04399  -0.03392   0.00000
   8        3PY         0.06861   0.04556   0.22469   0.00753   0.00000
   9        3PZ        -0.00524   0.00000   0.00000   0.00000   0.22308
  10        4XX        -0.00007   0.00000   0.00000   0.00000  -0.00054
  11        4YY        -0.00007   0.00000   0.00000   0.00000  -0.00204
  12        4ZZ         0.00051   0.00000   0.00000   0.00000  -0.01646
  13        4XY         0.00000   0.00081  -0.00036   0.00575   0.00000
  14        4XZ         0.00050  -0.02059   0.00407   0.00314   0.00000
  15        4YZ        -0.00753  -0.00422  -0.02079  -0.00070   0.00000
  16 2   S  1S          0.00000   0.00000   0.00000   0.00000   0.00000
  17        2S          0.00000   0.00000   0.00000   0.00000   0.00000
  18        2PX         0.01165   0.00000   0.00000   0.00000   0.00000
  19        2PY        -0.17572   0.00000   0.00000   0.00000   0.00000
  20        2PZ        -0.00515   0.00000   0.00000   0.00000   0.00000
  21        3S          0.00000   0.00000   0.00000   0.00000   0.00000
  22        3PX        -0.03093   0.00000   0.00000   0.00000   0.00000
  23        3PY         0.46642   0.00000   0.00000   0.00000   0.00000
  24        3PZ         0.01367   0.00000   0.00000   0.00000   0.00000
  25        4S          0.00000   0.00000   0.00000   0.00000   0.00000
  26        4PX        -0.00043   0.00000   0.00000   0.00000   0.00000
  27        4PY         0.00648   0.00000   0.00000   0.00000   0.00000
  28        4PZ         0.00019   0.00000   0.00000   0.00000   0.00000
  29        5XX         0.00000   0.00000   0.00000   0.00000   0.13507
  30        5YY         0.00000   0.00000   0.00000   0.00000   0.01819
  31        5ZZ         0.00000   0.00000   0.00000   0.00000  -0.15326
  32        5XY         0.00000   0.01565  -0.00691   0.11162   0.00000
  33        5XZ         0.00000   0.10957  -0.02166  -0.01670   0.00000
  34        5YZ         0.00000   0.02243   0.11062   0.00371   0.00000
  35 3   F  1S          0.06036   0.00000   0.00000   0.00000   0.00224
  36        2S         -0.13414   0.00000   0.00000   0.00000  -0.00350
  37        2PX        -0.00725   0.04216  -0.01862   0.30072   0.00000
  38        2PY        -0.31771   0.00000   0.00000   0.00000  -0.04126
  39        2PZ         0.00320   0.06043   0.29801   0.00998   0.00000
  40        3S         -0.20262   0.00000   0.00000   0.00000  -0.00873
  41        3PX        -0.00455   0.03178  -0.01404   0.22674   0.00000
  42        3PY        -0.17869   0.00000   0.00000   0.00000  -0.02647
  43        3PZ         0.00201   0.04556   0.22469   0.00753   0.00000
  44        4XX        -0.00246   0.00000   0.00000   0.00000   0.00199
  45        4YY         0.01735   0.00000   0.00000   0.00000   0.00195
  46        4ZZ        -0.00246   0.00000   0.00000   0.00000  -0.00169
  47        4XY         0.00050  -0.00294   0.00130  -0.02098   0.00000
  48        4XZ         0.00000   0.00565  -0.00112  -0.00086   0.00000
  49        4YZ        -0.00022  -0.00422  -0.02079  -0.00070   0.00000
  50 4   F  1S         -0.00177   0.00000   0.00000   0.00000  -0.01892
  51        2S          0.00393   0.00000   0.00000   0.00000   0.02949
  52        2PX        -0.00725  -0.29518   0.05835   0.04499   0.00000
  53        2PY         0.10930  -0.06043  -0.29801  -0.00998   0.00000
  54        2PZ        -0.00931   0.00000   0.00000   0.00000  -0.34770
  55        3S          0.00594   0.00000   0.00000   0.00000   0.07354
  56        3PX        -0.00455  -0.22256   0.04399   0.03392   0.00000
  57        3PY         0.06861  -0.04556  -0.22469  -0.00753   0.00000
  58        3PZ        -0.00524   0.00000   0.00000   0.00000  -0.22308
  59        4XX         0.00007   0.00000   0.00000   0.00000  -0.00054
  60        4YY         0.00007   0.00000   0.00000   0.00000  -0.00204
  61        4ZZ        -0.00051   0.00000   0.00000   0.00000  -0.01646
  62        4XY         0.00000   0.00081  -0.00036   0.00575   0.00000
  63        4XZ        -0.00050  -0.02059   0.00407   0.00314   0.00000
  64        4YZ         0.00753  -0.00422  -0.02079  -0.00070   0.00000
  65 5   F  1S         -0.00400   0.00000   0.00000   0.00000   0.01667
  66        2S          0.00890   0.00000   0.00000   0.00000  -0.02599
  67        2PX         0.02107   0.00000   0.00000   0.00000  -0.30643
  68        2PY         0.10930   0.04216  -0.01862   0.30072   0.00000
  69        2PZ         0.00320   0.29518  -0.05835  -0.04499   0.00000
  70        3S          0.01344   0.00000   0.00000   0.00000  -0.06481
  71        3PX         0.01185   0.00000   0.00000   0.00000  -0.19660
  72        3PY         0.06861   0.03178  -0.01404   0.22674   0.00000
  73        3PZ         0.00201   0.22256  -0.04399  -0.03392   0.00000
  74        4XX        -0.00115   0.00000   0.00000   0.00000   0.01451
  75        4YY         0.00016   0.00000   0.00000   0.00000   0.00223
  76        4ZZ         0.00016   0.00000   0.00000   0.00000   0.00004
  77        4XY        -0.00753  -0.00294   0.00130  -0.02098   0.00000
  78        4XZ        -0.00022  -0.02059   0.00407   0.00314   0.00000
  79        4YZ         0.00000   0.00116   0.00570   0.00019   0.00000
  80 6   F  1S          0.00400   0.00000   0.00000   0.00000   0.01667
  81        2S         -0.00890   0.00000   0.00000   0.00000  -0.02599
  82        2PX         0.02107   0.00000   0.00000   0.00000   0.30643
  83        2PY         0.10930  -0.04216   0.01862  -0.30072   0.00000
  84        2PZ         0.00320  -0.29518   0.05835   0.04499   0.00000
  85        3S         -0.01344   0.00000   0.00000   0.00000  -0.06481
  86        3PX         0.01185   0.00000   0.00000   0.00000   0.19660
  87        3PY         0.06861  -0.03178   0.01404  -0.22674   0.00000
  88        3PZ         0.00201  -0.22256   0.04399   0.03392   0.00000
  89        4XX         0.00115   0.00000   0.00000   0.00000   0.01451
  90        4YY        -0.00016   0.00000   0.00000   0.00000   0.00223
  91        4ZZ        -0.00016   0.00000   0.00000   0.00000   0.00004
  92        4XY         0.00753  -0.00294   0.00130  -0.02098   0.00000
  93        4XZ         0.00022  -0.02059   0.00407   0.00314   0.00000
  94        4YZ         0.00000   0.00116   0.00570   0.00019   0.00000
  95 7   F  1S         -0.06036   0.00000   0.00000   0.00000   0.00224
  96        2S          0.13414   0.00000   0.00000   0.00000  -0.00350
  97        2PX        -0.00725  -0.04216   0.01862  -0.30072   0.00000
  98        2PY        -0.31771   0.00000   0.00000   0.00000   0.04126
  99        2PZ         0.00320  -0.06043  -0.29801  -0.00998   0.00000
 100        3S          0.20262   0.00000   0.00000   0.00000  -0.00873
 101        3PX        -0.00455  -0.03178   0.01404  -0.22674   0.00000
 102        3PY        -0.17869   0.00000   0.00000   0.00000   0.02647
 103        3PZ         0.00201  -0.04556  -0.22469  -0.00753   0.00000
 104        4XX         0.00246   0.00000   0.00000   0.00000   0.00199
 105        4YY        -0.01735   0.00000   0.00000   0.00000   0.00195
 106        4ZZ         0.00246   0.00000   0.00000   0.00000  -0.00169
 107        4XY        -0.00050  -0.00294   0.00130  -0.02098   0.00000
 108        4XZ         0.00000   0.00565  -0.00112  -0.00086   0.00000
 109        4YZ         0.00022  -0.00422  -0.02079  -0.00070   0.00000
                          26        27        28        29        30
                        (EG)--O  (T1U)--O  (T1U)--O  (T1U)--O  (T2U)--O
     EIGENVALUES --    -0.52122  -0.46874  -0.46874  -0.46874  -0.46455
   1 1   F  1S          0.00833   0.00751   0.00009  -0.00008   0.00000
   2        2S         -0.01299   0.00538   0.00007  -0.00006   0.00000
   3        2PX         0.00000   0.00239   0.05624   0.29803   0.04546
   4        2PY         0.00000  -0.00426   0.29802  -0.05621   0.09891
   5        2PZ        -0.15310   0.21332   0.00264  -0.00221   0.00000
   6        3S         -0.03238  -0.11043  -0.00136   0.00114   0.00000
   7        3PX         0.00000   0.00151   0.03562   0.18875   0.03180
   8        3PY         0.00000  -0.00270   0.18874  -0.03560   0.06919
   9        3PZ        -0.09822   0.16416   0.00203  -0.00170   0.00000
  10        4XX         0.00226   0.01562   0.00019  -0.00016  -0.00636
  11        4YY        -0.00113   0.01562   0.00019  -0.00016   0.00636
  12        4ZZ         0.00725  -0.01167  -0.00014   0.00012   0.00000
  13        4XY         0.00000   0.00000   0.00000   0.00000   0.00000
  14        4XZ         0.00000  -0.00009  -0.00202  -0.01069  -0.00207
  15        4YZ         0.00000   0.00015  -0.01069   0.00202  -0.00451
  16 2   S  1S          0.00000   0.00000   0.00000   0.00000   0.00000
  17        2S          0.00000   0.00000   0.00000   0.00000   0.00000
  18        2PX         0.00000   0.00024   0.00555   0.02942   0.00000
  19        2PY         0.00000  -0.00042   0.02941  -0.00555   0.00000
  20        2PZ         0.00000   0.02993   0.00037  -0.00031   0.00000
  21        3S          0.00000   0.00000   0.00000   0.00000   0.00000
  22        3PX         0.00000  -0.00065  -0.01531  -0.08115   0.00000
  23        3PY         0.00000   0.00116  -0.08115   0.01530   0.00000
  24        3PZ         0.00000  -0.08257  -0.00102   0.00085   0.00000
  25        4S          0.00000   0.00000   0.00000   0.00000   0.00000
  26        4PX         0.00000   0.00159   0.03749   0.19865   0.00000
  27        4PY         0.00000  -0.00284   0.19864  -0.03746   0.00000
  28        4PZ         0.00000   0.20214   0.00250  -0.00209   0.00000
  29        5XX         0.09898   0.00000   0.00000   0.00000   0.00000
  30        5YY        -0.16647   0.00000   0.00000   0.00000   0.00000
  31        5ZZ         0.06748   0.00000   0.00000   0.00000   0.00000
  32        5XY         0.00000   0.00000   0.00000   0.00000   0.00000
  33        5XZ         0.00000   0.00000   0.00000   0.00000   0.00000
  34        5YZ         0.00000   0.00000   0.00000   0.00000   0.00000
  35 3   F  1S         -0.02055  -0.00011   0.00738  -0.00139   0.00000
  36        2S          0.03203  -0.00008   0.00529  -0.00100   0.00000
  37        2PX         0.00000   0.00239   0.05624   0.29803  -0.04546
  38        2PY         0.37766  -0.00300   0.20964  -0.03954   0.00000
  39        2PZ         0.00000   0.30326   0.00375  -0.00314   0.32338
  40        3S          0.07988   0.00155  -0.10852   0.02047   0.00000
  41        3PX         0.00000   0.00151   0.03562   0.18875  -0.03180
  42        3PY         0.24230  -0.00231   0.16132  -0.03042   0.00000
  43        3PZ         0.00000   0.19206   0.00237  -0.00199   0.22622
  44        4XX        -0.00120  -0.00022   0.01535  -0.00289  -0.00195
  45        4YY        -0.01788   0.00016  -0.01147   0.00216   0.00000
  46        4ZZ        -0.00160  -0.00022   0.01535  -0.00289   0.00195
  47        4XY         0.00000  -0.00009  -0.00202  -0.01069   0.00207
  48        4XZ         0.00000   0.00000   0.00000   0.00000   0.00000
  49        4YZ         0.00000  -0.01087  -0.00013   0.00011  -0.01474
  50 4   F  1S          0.00833  -0.00751  -0.00009   0.00008   0.00000
  51        2S         -0.01299  -0.00538  -0.00007   0.00006   0.00000
  52        2PX         0.00000   0.00239   0.05624   0.29803   0.04546
  53        2PY         0.00000  -0.00426   0.29802  -0.05621   0.09891
  54        2PZ         0.15310   0.21332   0.00264  -0.00221   0.00000
  55        3S         -0.03238   0.11043   0.00136  -0.00114   0.00000
  56        3PX         0.00000   0.00151   0.03562   0.18875   0.03180
  57        3PY         0.00000  -0.00270   0.18874  -0.03560   0.06919
  58        3PZ         0.09822   0.16416   0.00203  -0.00170   0.00000
  59        4XX         0.00226  -0.01562  -0.00019   0.00016   0.00636
  60        4YY        -0.00113  -0.01562  -0.00019   0.00016  -0.00636
  61        4ZZ         0.00725   0.01167   0.00014  -0.00012   0.00000
  62        4XY         0.00000   0.00000   0.00000   0.00000   0.00000
  63        4XZ         0.00000   0.00009   0.00202   0.01069   0.00207
  64        4YZ         0.00000  -0.00015   0.01069  -0.00202   0.00451
  65 5   F  1S          0.01222   0.00006   0.00139   0.00738   0.00000
  66        2S         -0.01905   0.00004   0.00100   0.00529   0.00000
  67        2PX        -0.22457   0.00168   0.03956   0.20964   0.00000
  68        2PY         0.00000  -0.00426   0.29802  -0.05621  -0.09891
  69        2PZ         0.00000   0.30326   0.00375  -0.00314  -0.32338
  70        3S         -0.04750  -0.00087  -0.02048  -0.10852   0.00000
  71        3PX        -0.14408   0.00129   0.03044   0.16133   0.00000
  72        3PY         0.00000  -0.00270   0.18874  -0.03560  -0.06919
  73        3PZ         0.00000   0.19206   0.00237  -0.00199  -0.22622
  74        4XX         0.01063  -0.00009  -0.00216  -0.01147   0.00000
  75        4YY        -0.00066   0.00012   0.00290   0.01535  -0.00089
  76        4ZZ         0.00233   0.00012   0.00290   0.01535   0.00089
  77        4XY         0.00000   0.00015  -0.01069   0.00202   0.00451
  78        4XZ         0.00000  -0.01087  -0.00013   0.00011   0.01474
  79        4YZ         0.00000   0.00000   0.00000   0.00000   0.00000
  80 6   F  1S          0.01222  -0.00006  -0.00139  -0.00738   0.00000
  81        2S         -0.01905  -0.00004  -0.00100  -0.00529   0.00000
  82        2PX         0.22457   0.00168   0.03956   0.20964   0.00000
  83        2PY         0.00000  -0.00426   0.29802  -0.05621  -0.09891
  84        2PZ         0.00000   0.30326   0.00375  -0.00314  -0.32338
  85        3S         -0.04750   0.00087   0.02048   0.10852   0.00000
  86        3PX         0.14408   0.00129   0.03044   0.16133   0.00000
  87        3PY         0.00000  -0.00270   0.18874  -0.03560  -0.06919
  88        3PZ         0.00000   0.19206   0.00237  -0.00199  -0.22622
  89        4XX         0.01063   0.00009   0.00216   0.01147   0.00000
  90        4YY        -0.00066  -0.00012  -0.00290  -0.01535   0.00089
  91        4ZZ         0.00233  -0.00012  -0.00290  -0.01535  -0.00089
  92        4XY         0.00000  -0.00015   0.01069  -0.00202  -0.00451
  93        4XZ         0.00000   0.01087   0.00013  -0.00011  -0.01474
  94        4YZ         0.00000   0.00000   0.00000   0.00000   0.00000
  95 7   F  1S         -0.02055   0.00011  -0.00738   0.00139   0.00000
  96        2S          0.03203   0.00008  -0.00529   0.00100   0.00000
  97        2PX         0.00000   0.00239   0.05624   0.29803  -0.04546
  98        2PY        -0.37766  -0.00300   0.20964  -0.03954   0.00000
  99        2PZ         0.00000   0.30326   0.00375  -0.00314   0.32338
 100        3S          0.07988  -0.00155   0.10852  -0.02047   0.00000
 101        3PX         0.00000   0.00151   0.03562   0.18875  -0.03180
 102        3PY        -0.24230  -0.00231   0.16132  -0.03042   0.00000
 103        3PZ         0.00000   0.19206   0.00237  -0.00199   0.22622
 104        4XX        -0.00120   0.00022  -0.01535   0.00289   0.00195
 105        4YY        -0.01788  -0.00016   0.01147  -0.00216   0.00000
 106        4ZZ        -0.00160   0.00022  -0.01535   0.00289  -0.00195
 107        4XY         0.00000   0.00009   0.00202   0.01069  -0.00207
 108        4XZ         0.00000   0.00000   0.00000   0.00000   0.00000
 109        4YZ         0.00000   0.01087   0.00013  -0.00011   0.01474
                          31        32        33        34        35
                       (T2U)--O  (T2U)--O  (T1G)--O  (T1G)--O  (T1G)--O
     EIGENVALUES --    -0.46455  -0.46455  -0.42739  -0.42739  -0.42739
   1 1   F  1S          0.00000   0.00000   0.00000   0.00000   0.00000
   2        2S          0.00000   0.00000   0.00000   0.00000   0.00000
   3        2PX        -0.02440   0.33729   0.25051   0.24106  -0.08347
   4        2PY         0.32640   0.01028  -0.24120   0.26191   0.03248
   5        2PZ         0.00000   0.00000   0.00000   0.00000   0.00000
   6        3S          0.00000   0.00000   0.00000   0.00000   0.00000
   7        3PX        -0.01707   0.23595   0.16653   0.16025  -0.05549
   8        3PY         0.22834   0.00719  -0.16035   0.17411   0.02159
   9        3PZ         0.00000   0.00000   0.00000   0.00000   0.00000
  10        4XX         0.00190   0.00099   0.00000   0.00000   0.00000
  11        4YY        -0.00190  -0.00099   0.00000   0.00000   0.00000
  12        4ZZ         0.00000   0.00000   0.00000   0.00000   0.00000
  13        4XY         0.00000   0.00000   0.00000   0.00000   0.00000
  14        4XZ         0.00111  -0.01537  -0.00790  -0.00761   0.00263
  15        4YZ        -0.01488  -0.00047   0.00761  -0.00826  -0.00102
  16 2   S  1S          0.00000   0.00000   0.00000   0.00000   0.00000
  17        2S          0.00000   0.00000   0.00000   0.00000   0.00000
  18        2PX         0.00000   0.00000   0.00000   0.00000   0.00000
  19        2PY         0.00000   0.00000   0.00000   0.00000   0.00000
  20        2PZ         0.00000   0.00000   0.00000   0.00000   0.00000
  21        3S          0.00000   0.00000   0.00000   0.00000   0.00000
  22        3PX         0.00000   0.00000   0.00000   0.00000   0.00000
  23        3PY         0.00000   0.00000   0.00000   0.00000   0.00000
  24        3PZ         0.00000   0.00000   0.00000   0.00000   0.00000
  25        4S          0.00000   0.00000   0.00000   0.00000   0.00000
  26        4PX         0.00000   0.00000   0.00000   0.00000   0.00000
  27        4PY         0.00000   0.00000   0.00000   0.00000   0.00000
  28        4PZ         0.00000   0.00000   0.00000   0.00000   0.00000
  29        5XX         0.00000   0.00000   0.00000   0.00000   0.00000
  30        5YY         0.00000   0.00000   0.00000   0.00000   0.00000
  31        5ZZ         0.00000   0.00000   0.00000   0.00000   0.00000
  32        5XY         0.00000   0.00000   0.00000   0.00000   0.00000
  33        5XZ         0.00000   0.00000   0.00000   0.00000   0.00000
  34        5YZ         0.00000   0.00000   0.00000   0.00000   0.00000
  35 3   F  1S          0.00000   0.00000   0.00000   0.00000   0.00000
  36        2S          0.00000   0.00000   0.00000   0.00000   0.00000
  37        2PX         0.02440  -0.33729   0.08304   0.03355   0.34613
  38        2PY         0.00000   0.00000   0.00000   0.00000   0.00000
  39        2PZ        -0.09640  -0.05056   0.24120  -0.26191  -0.03248
  40        3S          0.00000   0.00000   0.00000   0.00000   0.00000
  41        3PX         0.01707  -0.23595   0.05521   0.02230   0.23010
  42        3PY         0.00000   0.00000   0.00000   0.00000   0.00000
  43        3PZ        -0.06744  -0.03537   0.16035  -0.17411  -0.02159
  44        4XX        -0.00642  -0.00020   0.00000   0.00000   0.00000
  45        4YY         0.00000   0.00000   0.00000   0.00000   0.00000
  46        4ZZ         0.00642   0.00020   0.00000   0.00000   0.00000
  47        4XY        -0.00111   0.01537  -0.00262  -0.00106  -0.01092
  48        4XZ         0.00000   0.00000   0.00000   0.00000   0.00000
  49        4YZ         0.00439   0.00230  -0.00761   0.00826   0.00102
  50 4   F  1S          0.00000   0.00000   0.00000   0.00000   0.00000
  51        2S          0.00000   0.00000   0.00000   0.00000   0.00000
  52        2PX        -0.02440   0.33729  -0.25051  -0.24106   0.08347
  53        2PY         0.32640   0.01028   0.24120  -0.26191  -0.03248
  54        2PZ         0.00000   0.00000   0.00000   0.00000   0.00000
  55        3S          0.00000   0.00000   0.00000   0.00000   0.00000
  56        3PX        -0.01707   0.23595  -0.16653  -0.16025   0.05549
  57        3PY         0.22834   0.00719   0.16035  -0.17411  -0.02159
  58        3PZ         0.00000   0.00000   0.00000   0.00000   0.00000
  59        4XX        -0.00190  -0.00099   0.00000   0.00000   0.00000
  60        4YY         0.00190   0.00099   0.00000   0.00000   0.00000
  61        4ZZ         0.00000   0.00000   0.00000   0.00000   0.00000
  62        4XY         0.00000   0.00000   0.00000   0.00000   0.00000
  63        4XZ        -0.00111   0.01537  -0.00790  -0.00761   0.00263
  64        4YZ         0.01488   0.00047   0.00761  -0.00826  -0.00102
  65 5   F  1S          0.00000   0.00000   0.00000   0.00000   0.00000
  66        2S          0.00000   0.00000   0.00000   0.00000   0.00000
  67        2PX         0.00000   0.00000   0.00000   0.00000   0.00000
  68        2PY        -0.32640  -0.01028  -0.08304  -0.03355  -0.34613
  69        2PZ         0.09640   0.05056  -0.25051  -0.24106   0.08347
  70        3S          0.00000   0.00000   0.00000   0.00000   0.00000
  71        3PX         0.00000   0.00000   0.00000   0.00000   0.00000
  72        3PY        -0.22834  -0.00719  -0.05521  -0.02230  -0.23010
  73        3PZ         0.06744   0.03537  -0.16653  -0.16025   0.05549
  74        4XX         0.00000   0.00000   0.00000   0.00000   0.00000
  75        4YY         0.00048  -0.00664   0.00000   0.00000   0.00000
  76        4ZZ        -0.00048   0.00664   0.00000   0.00000   0.00000
  77        4XY         0.01488   0.00047   0.00262   0.00106   0.01092
  78        4XZ        -0.00439  -0.00230   0.00790   0.00761  -0.00263
  79        4YZ         0.00000   0.00000   0.00000   0.00000   0.00000
  80 6   F  1S          0.00000   0.00000   0.00000   0.00000   0.00000
  81        2S          0.00000   0.00000   0.00000   0.00000   0.00000
  82        2PX         0.00000   0.00000   0.00000   0.00000   0.00000
  83        2PY        -0.32640  -0.01028   0.08304   0.03355   0.34613
  84        2PZ         0.09640   0.05056   0.25051   0.24106  -0.08347
  85        3S          0.00000   0.00000   0.00000   0.00000   0.00000
  86        3PX         0.00000   0.00000   0.00000   0.00000   0.00000
  87        3PY        -0.22834  -0.00719   0.05521   0.02230   0.23010
  88        3PZ         0.06744   0.03537   0.16653   0.16025  -0.05549
  89        4XX         0.00000   0.00000   0.00000   0.00000   0.00000
[...]
   1   9     0.00   0.50   0.00    -0.02  -0.01   0.00     0.50   0.00   0.00
   2  16     0.00   0.00   0.00     0.00   0.00   0.00     0.00   0.00   0.00
   3   9     0.00   0.00   0.01     0.02   0.00   0.50    -0.50   0.00   0.02
   4   9     0.00   0.50   0.00    -0.02  -0.01   0.00     0.50   0.00   0.00
   5   9     0.00  -0.50  -0.01     0.00   0.01  -0.50     0.00   0.00  -0.02
   6   9     0.00  -0.50  -0.01     0.00   0.01  -0.50     0.00   0.00  -0.02
   7   9     0.00   0.00   0.01     0.02   0.00   0.50    -0.50   0.00   0.02
                     4                      5                      6
                    T2G                    T2G                    T2G
 Frequencies --   473.6883               473.6883               473.6883
 Red. masses --    18.9984                18.9984                18.9984
 Frc consts  --     2.5116                 2.5116                 2.5116
 IR Inten    --     0.0000                 0.0000                 0.0000
 Atom AN      X      Y      Z        X      Y      Z        X      Y      Z
   1   9     0.00   0.50   0.00     0.00   0.00   0.00    -0.50   0.00   0.00
   2  16     0.00   0.00   0.00     0.00   0.00   0.00     0.00   0.00   0.00
   3   9     0.00   0.00   0.50     0.50   0.00   0.00     0.00   0.00   0.00
   4   9     0.00  -0.50   0.00     0.00   0.00   0.00     0.50   0.00   0.00
   5   9     0.00   0.00   0.00     0.00   0.50   0.00     0.00   0.00  -0.50
   6   9     0.00   0.00   0.00     0.00  -0.50   0.00     0.00   0.00   0.50
   7   9     0.00   0.00  -0.50    -0.50   0.00   0.00     0.00   0.00   0.00
                     7                      8                      9
                    T1U                    T1U                    T1U
 Frequencies --   557.7031               557.7031               557.7031
 Red. masses --    20.1679                20.1679                20.1679
 Frc consts  --     3.6959                 3.6959                 3.6959
 IR Inten    --    25.4316                25.4316                25.4316
 Atom AN      X      Y      Z        X      Y      Z        X      Y      Z
   1   9    -0.04   0.00   0.45     0.35  -0.01   0.05    -0.01  -0.35   0.00
   2  16     0.03   0.00   0.30    -0.30   0.01   0.03     0.01   0.30   0.00
   3   9    -0.04   0.00  -0.35     0.35   0.01  -0.04    -0.01   0.45   0.00
   4   9    -0.04   0.00   0.45     0.35  -0.01   0.05    -0.01  -0.35   0.00
   5   9     0.05   0.00  -0.35    -0.45  -0.01  -0.04     0.01  -0.35   0.00
   6   9     0.05   0.00  -0.35    -0.45  -0.01  -0.04     0.01  -0.35   0.00
   7   9    -0.04   0.00  -0.35     0.35   0.01  -0.04    -0.01   0.45   0.00
                    10                     11                     12
                    EG                     EG                     A1G
 Frequencies --   648.2291               648.2291               731.0109
 Red. masses --    18.9984                18.9984                18.9984
 Frc consts  --     4.7035                 4.7035                 5.9816
 IR Inten    --     0.0000                 0.0000                 0.0000
 Atom AN      X      Y      Z        X      Y      Z        X      Y      Z
   1   9     0.00   0.00  -0.41     0.00   0.00  -0.41     0.00   0.00   0.41
   2  16     0.00   0.00   0.00     0.00   0.00   0.00     0.00   0.00   0.00
   3   9     0.00   0.56   0.00     0.00  -0.15   0.00     0.00   0.41   0.00
   4   9     0.00   0.00   0.41     0.00   0.00   0.41     0.00   0.00  -0.41
   5   9    -0.15   0.00   0.00     0.56   0.00   0.00     0.41   0.00   0.00
   6   9     0.15   0.00   0.00    -0.56   0.00   0.00    -0.41   0.00   0.00
   7   9     0.00  -0.56   0.00     0.00   0.15   0.00     0.00  -0.41   0.00
                    13                     14                     15
                    T1U                    T1U                    T1U
 Frequencies --   965.0258               965.0258               965.0258
 Red. masses --    25.6358                25.6358                25.6358
 Frc consts  --    14.0661                14.0661                14.0661
 IR Inten    --   364.7756               364.7756               364.7756
 Atom AN      X      Y      Z        X      Y      Z        X      Y      Z
   1   9    -0.06   0.00   0.01     0.00  -0.06   0.00     0.00   0.00  -0.49
   2  16     0.72   0.01  -0.01    -0.01   0.72   0.00     0.01   0.00   0.72
   3   9    -0.06  -0.01   0.00     0.00  -0.49   0.00     0.00   0.00  -0.06
   4   9    -0.06   0.00   0.01     0.00  -0.06   0.00     0.00   0.00  -0.49
   5   9    -0.49   0.00   0.00     0.01  -0.06   0.00    -0.01   0.00  -0.06
   6   9    -0.49   0.00   0.00     0.01  -0.06   0.00    -0.01   0.00  -0.06
   7   9    -0.06  -0.01   0.00     0.00  -0.49   0.00     0.00   0.00  -0.06

 -------------------
 - Thermochemistry -
 -------------------
 Temperature   298.150 Kelvin.  Pressure   1.00000 Atm.
 Atom  1 has atomic number  9 and mass  18.99840
 Atom  2 has atomic number 16 and mass  31.97207
 Atom  3 has atomic number  9 and mass  18.99840
 Atom  4 has atomic number  9 and mass  18.99840
 Atom  5 has atomic number  9 and mass  18.99840
 Atom  6 has atomic number  9 and mass  18.99840
 Atom  7 has atomic number  9 and mass  18.99840
 Molecular mass:   145.96249 amu.
 Principal axes and moments of inertia in atomic units:
                           1         2         3
     EIGENVALUES --   694.51142 694.51142 694.51142
           X           -0.05350   0.00000   0.99857
           Y            0.99857   0.00000   0.05350
           Z            0.00000   1.00000   0.00000
 This molecule is a spherical top.
 Rotational symmetry number 24.
 Warning -- assumption of classical behavior for rotation
           may cause significant error
 Rotational temperatures (Kelvin)      0.12471     0.12471     0.12471
 Rotational constants (GHZ):           2.59858     2.59858     2.59858
 Zero-point vibrational energy      53608.6 (Joules/Mol)
                                   12.81276 (Kcal/Mol)
 Warning -- explicit consideration of   9 degrees of freedom as
           vibrations may cause significant error
 Vibrational temperatures:    453.66   453.66   453.66   681.53   681.53
          (Kelvin)            681.53   802.41   802.41   802.41   932.66
                              932.66  1051.76  1388.46  1388.46  1388.46
 
 Zero-point correction=                           0.020418 (Hartree/Particle)
 Thermal correction to Energy=                    0.026240
 Thermal correction to Enthalpy=                  0.027184
 Thermal correction to Gibbs Free Energy=        -0.006526
 Sum of electronic and zero-point Energies=           -997.086325
 Sum of electronic and thermal Energies=              -997.080503
 Sum of electronic and thermal Enthalpies=            -997.079559
 Sum of electronic and thermal Free Energies=         -997.113269
 
                     E (Thermal)             CV                S
                      KCal/Mol        Cal/Mol-Kelvin    Cal/Mol-Kelvin
 Total                   16.466             22.074             70.949
 Electronic               0.000              0.000              0.000
 Translational            0.889              2.981             40.845
 Rotational               0.889              2.981             20.992
 Vibrational             14.689             16.112              9.112
 Vibration  1             0.703              1.644              1.334
 Vibration  2             0.703              1.644              1.334
 Vibration  3             0.703              1.644              1.334
 Vibration  4             0.830              1.308              0.727
 Vibration  5             0.830              1.308              0.727
 Vibration  6             0.830              1.308              0.727
 Vibration  7             0.913              1.123              0.528
 Vibration  8             0.913              1.123              0.528
 Vibration  9             0.913              1.123              0.528
                       Q            Log10(Q)             Ln(Q)
 Total Bot       0.100371D+04          3.001610          6.911463
 Total V=0       0.247410D+13         12.393417         28.536898
 Vib (Bot)       0.167741D-08         -8.775361        -20.206015
 Vib (Bot)  1    0.597841D+00         -0.223414         -0.514430
 Vib (Bot)  2    0.597841D+00         -0.223414         -0.514430
 Vib (Bot)  3    0.597841D+00         -0.223414         -0.514430
 Vib (Bot)  4    0.354979D+00         -0.449798         -1.035697
 Vib (Bot)  5    0.354979D+00         -0.449798         -1.035697
 Vib (Bot)  6    0.354979D+00         -0.449798         -1.035697
 Vib (Bot)  7    0.279306D+00         -0.553919         -1.275447
 Vib (Bot)  8    0.279306D+00         -0.553919         -1.275447
 Vib (Bot)  9    0.279306D+00         -0.553919         -1.275447
 Vib (V=0)       0.413472D+01          0.616446          1.419419
 Vib (V=0)  1    0.127937D+01          0.106995          0.246366
 Vib (V=0)  2    0.127937D+01          0.106995          0.246366
 Vib (V=0)  3    0.127937D+01          0.106995          0.246366
 Vib (V=0)  4    0.111320D+01          0.046572          0.107236
 Vib (V=0)  5    0.111320D+01          0.046572          0.107236
 Vib (V=0)  6    0.111320D+01          0.046572          0.107236
 Vib (V=0)  7    0.107272D+01          0.030488          0.070201
 Vib (V=0)  8    0.107272D+01          0.030488          0.070201
 Vib (V=0)  9    0.107272D+01          0.030488          0.070201
 Electronic      0.100000D+01          0.000000          0.000000
 Translational   0.693134D+08          7.840817         18.054148
 Rotational      0.863285D+04          3.936154          9.063330
 ***** Axes restored to original set *****
 -------------------------------------------------------------------
 Center     Atomic                   Forces (Hartrees/Bohr)
 Number     Number              X              Y              Z
 -------------------------------------------------------------------
    1          9           0.000000140   -0.000000140    0.000230985
    2         16           0.000000000    0.000000000    0.000000000
    3          9           0.000000000    0.000230985    0.000000140
    4          9          -0.000000140    0.000000140   -0.000230985
    5          9           0.000230985    0.000000000   -0.000000140
    6          9          -0.000230985    0.000000000    0.000000140
    7          9           0.000000000   -0.000230985   -0.000000140
 -------------------------------------------------------------------
 Cartesian Forces:  Max     0.000230985 RMS     0.000123467

 GradGradGradGradGradGradGradGradGradGradGradGradGradGradGradGradGradGrad
 Berny optimization.
 Internal  Forces:  Max     0.000230985 RMS     0.000123467
 Search for a local minimum.
 Step number   1 out of a maximum of   2
 All quantities printed in internal units (Hartrees-Bohrs-Radians)
 Second derivative matrix not updated -- analytic derivatives used.
     Eigenvalues ---    0.16349   0.17949   0.19721   0.26372   0.27634
     Eigenvalues ---    0.30211   0.30211   0.32698   0.36876   0.36876
     Eigenvalues ---    0.36876   0.38024   0.38420   0.49434   0.56870
     Eigenvalues --- 1000.000001000.000001000.000001000.000001000.00000
     Eigenvalues --- 1000.00000
 Angle between quadratic step and forces=   0.00 degrees.
 Linear search not attempted -- first point.
 Iteration  1 RMS(Cart)=  0.00032136 RMS(Int)=  0.00000000
 Iteration  2 RMS(Cart)=  0.00000000 RMS(Int)=  0.00000000
 Variable       Old X    -DE/DX   Delta X   Delta X   Delta X     New X
                                 (Linear)    (Quad)   (Total)
    R1        3.02309   0.00023   0.00000   0.00060   0.00060   3.02369
    R2        3.02309   0.00023   0.00000   0.00060   0.00060   3.02369
    R3        3.02309   0.00023   0.00000   0.00060   0.00060   3.02369
    R4        3.02309   0.00023   0.00000   0.00060   0.00060   3.02369
    R5        3.02309   0.00023   0.00000   0.00060   0.00060   3.02369
    R6        3.02309   0.00023   0.00000   0.00060   0.00060   3.02369
    A1        1.57080   0.00000   0.00000   0.00000   0.00000   1.57080
    A2        1.57080   0.00000   0.00000   0.00000   0.00000   1.57080
    A3        1.57080   0.00000   0.00000   0.00000   0.00000   1.57080
    A4        1.57080   0.00000   0.00000   0.00000   0.00000   1.57080
    A5        1.57080   0.00000   0.00000   0.00000   0.00000   1.57080
    A6        1.57080   0.00000   0.00000   0.00000   0.00000   1.57080
    A7        1.57080   0.00000   0.00000   0.00000   0.00000   1.57080
    A8        1.57080   0.00000   0.00000   0.00000   0.00000   1.57080
    A9        1.57080   0.00000   0.00000   0.00000   0.00000   1.57080
   A10        1.57080   0.00000   0.00000   0.00000   0.00000   1.57080
   A11        1.57080   0.00000   0.00000   0.00000   0.00000   1.57080
   A12        1.57080   0.00000   0.00000   0.00000   0.00000   1.57080
   A13        3.14159   0.00000   0.00000   0.00000   0.00000   3.14159
   A14        3.14159   0.00000   0.00000   0.00000   0.00000   3.14159
   A15        3.14159   0.00000   0.00000   0.00000   0.00000   3.14159
         Item               Value     Threshold  Converged?
 Maximum Force            0.000231     0.000450     YES
 RMS     Force            0.000123     0.000300     YES
 Maximum Displacement     0.000601     0.001800     YES
 RMS     Displacement     0.000321     0.001200     YES
 Predicted change in Energy=-4.166131D-07
 Optimization completed.
    -- Stationary point found.
                           ----------------------------
                           !   Optimized Parameters   !
                           ! (Angstroms and Degrees)  !
 --------------------------                            --------------------------
 ! Name  Definition              Value          Derivative Info.                !
 --------------------------------------------------------------------------------
 ! R1    R(1,2)                  1.5998         -DE/DX =    0.0002              !
 ! R2    R(2,3)                  1.5998         -DE/DX =    0.0002              !
 ! R3    R(2,4)                  1.5998         -DE/DX =    0.0002              !
 ! R4    R(2,5)                  1.5998         -DE/DX =    0.0002              !
 ! R5    R(2,6)                  1.5998         -DE/DX =    0.0002              !
 ! R6    R(2,7)                  1.5998         -DE/DX =    0.0002              !
 ! A1    A(1,2,3)               90.0            -DE/DX =    0.0                 !
 ! A2    A(1,2,5)               90.0            -DE/DX =    0.0                 !
 ! A3    A(1,2,6)               90.0            -DE/DX =    0.0                 !
 ! A4    A(1,2,7)               90.0            -DE/DX =    0.0                 !
 ! A5    A(3,2,4)               90.0            -DE/DX =    0.0                 !
 ! A6    A(3,2,5)               90.0            -DE/DX =    0.0                 !
 ! A7    A(3,2,6)               90.0            -DE/DX =    0.0                 !
 ! A8    A(4,2,5)               90.0            -DE/DX =    0.0                 !
 ! A9    A(4,2,6)               90.0            -DE/DX =    0.0                 !
 ! A10   A(4,2,7)               90.0            -DE/DX =    0.0                 !
 ! A11   A(5,2,7)               90.0            -DE/DX =    0.0                 !
 ! A12   A(6,2,7)               90.0            -DE/DX =    0.0                 !
 ! A13   L(1,2,4,3,-2)         180.0            -DE/DX =    0.0                 !
 ! A14   L(3,2,7,1,-2)         180.0            -DE/DX =    0.0                 !
 ! A15   L(5,2,6,1,-2)         180.0            -DE/DX =    0.0                 !
 --------------------------------------------------------------------------------
 GradGradGradGradGradGradGradGradGradGradGradGradGradGradGradGradGradGrad

 1\1\GINC-MELCHETT\Freq\RB3LYP\6-31G(d)\F6S1\XAVIER\30-Jan-2008\0\\# B3
 LYP/6-31G* POP=FULL GFPRINT FREQ GUESS=READ GEOM=CHECK\\InChI=1/F6S/c1
 -7(2,3,4,5)6\\0,1\F,0.0009703612,-0.0009697733,1.5997500108\S,0.,0.,0.
 \F,0.0000005881,1.5997503051,0.0009697732\F,-0.0009703612,0.0009697733
 ,-1.5997500108\F,1.5997503047,0.0000000002,-0.0009703614\F,-1.59975030
 47,-0.0000000002,0.0009703614\F,-0.0000005881,-1.5997503051,-0.0009697
 732\\Version=x86-Linux-G03RevB.04\State=1-A1G\HF=-997.1067436\RMSD=2.4
 27e-10\RMSF=1.235e-04\Dipole=0.,0.,0.\DipoleDeriv=-0.3724605,0.0000002
 ,-0.0002649,0.0000002,-0.3724605,0.0002647,-0.0002649,0.0002647,-0.809
 1031,3.1080479,0.,0.,0.,3.1080479,0.,0.,0.,3.1080479,-0.3724603,-0.000
 0002,0.,-0.0000002,-0.8091032,-0.0002647,0.,-0.0002647,-0.3724605,-0.3
 724605,0.0000002,-0.0002649,0.0000002,-0.3724605,0.0002647,-0.0002649,
 0.0002647,-0.8091031,-0.8091032,0.,0.0002649,0.,-0.3724603,0.,0.000264
 9,0.,-0.3724605,-0.8091032,0.,0.0002649,0.,-0.3724603,0.,0.0002649,0.,
 -0.3724605,-0.3724603,-0.0000002,0.,-0.0000002,-0.8091032,-0.0002647,0
 .,-0.0002647,-0.3724605\Polar=24.1067121,0.,24.1067121,0.,0.,24.106712
 1\PG=OH [O(S1),3C4(F1.F1)]\NImag=0\\0.08597552,-0.00000009,0.08597552,
 0.00014558,-0.00014549,0.32598260,-0.07172614,0.00000006,-0.00010384,0
 .77272564,0.00000006,-0.07172614,0.00010377,0.,0.77272564,-0.00010384,
 0.00010377,-0.24291053,0.,0.,0.77272564,0.01000905,0.00002453,-0.00001
 812,-0.07172608,-0.00000006,0.,0.08597543,0.00000830,-0.01992823,0.013
 68142,-0.00000006,-0.24291060,-0.00010377,0.00000009,0.32598268,-0.000
 01812,0.04043498,-0.01986260,0.,-0.00010377,-0.07172614,0.,0.00014549,
 0.08597552,0.00552337,0.,-0.00000547,-0.07172614,0.00000006,-0.0001038
 4,0.01000905,-0.00000830,-0.00001816,0.08597552,0.,0.00552337,0.000005
 46,0.00000006,-0.07172614,0.00010377,-0.00002453,-0.01986261,-0.040434
 98,-0.00000009,0.08597552,-0.00000547,0.00000546,-0.00349042,-0.000103
 84,0.00010377,-0.24291053,-0.00001816,-0.01368142,-0.01992821,0.000145
 58,-0.00014549,0.32598260,-0.01986259,-0.00000828,0.01368142,-0.242910
 60,0.,0.00010384,-0.01989539,0.01368143,0.00002643,-0.01992825,0.00000
 830,-0.01368142,0.32598268,-0.00002450,0.01000905,0.00001814,0.,-0.071
 72608,0.,0.04043498,-0.01989541,-0.00004265,0.00002452,0.01000905,0.00
 001811,0.,0.08597543,0.04043498,0.00001813,-0.01992823,0.00010384,0.,-
 0.07172614,0.00004265,-0.00002643,0.01000902,-0.04043498,0.00001812,-0
 .01986258,-0.00014558,0.,0.08597552,-0.01992825,0.00000830,-0.01368142
 ,-0.24291060,0.,0.00010384,-0.01989543,-0.01368145,0.00000985,-0.01986
 259,-0.00000828,0.01368142,-0.00349043,0.,0.00000547,0.32598268,0.0000
 2452,0.01000905,0.00001811,0.,-0.07172608,0.,-0.04043501,-0.01989541,0
 .00000640,-0.00002450,0.01000905,0.00001814,0.,0.00552337,0.,0.,0.0859
 7543,-0.04043498,0.00001812,-0.01986258,0.00010384,0.,-0.07172614,-0.0
 0000637,-0.00000983,0.01000906,0.04043498,0.00001813,-0.01992823,0.000
 00547,0.,0.00552337,-0.00014558,0.,0.08597552,0.01000905,-0.00002453,-
 0.00001816,-0.07172608,-0.00000006,0.,0.00552337,0.,0.,0.01000905,0.00
 002453,-0.00001812,-0.01989543,-0.04043501,-0.00000637,-0.01989539,0.0
 4043498,0.00004265,0.08597543,-0.00000830,-0.01986261,-0.01368142,-0.0
 0000006,-0.24291060,-0.00010377,0.,-0.00349043,-0.00000546,0.00000830,
 -0.01992823,0.01368142,-0.01368145,-0.01989541,-0.00000983,0.01368143,
 -0.01989541,-0.00002643,0.00000009,0.32598268,-0.00001816,-0.04043498,
 -0.01992821,0.,-0.00010377,-0.07172614,0.,-0.00000546,0.00552337,-0.00
 001812,0.04043498,-0.01986260,0.00000985,0.00000640,0.01000906,0.00002
 643,-0.00004265,0.01000902,0.,0.00014549,0.08597552\\-0.00000014,0.000
 00014,-0.00023098,0.,0.,0.,0.,-0.00023099,-0.00000014,0.00000014,-0.00
 000014,0.00023098,-0.00023099,0.,0.00000014,0.00023099,0.,-0.00000014,
 0.,0.00023099,0.00000014\\\@


 MODELS ARE TO BE USED, NOT BELIEVED.

    -- PARAPHRASED BY H. THIEL IN "PRINCIPLES OF ECONOMETRICS"
 Job cpu time:  0 days  0 hours  1 minutes 36.1 seconds.
 File lengths (MBytes):  RWF=     17 Int=      0 D2E=      0 Chk=      8 Scr=      1
 Normal termination of Gaussian 03 at Wed Jan 30 13:06:04 2008.
